Bare Site                                                               
Freq      RwB97XD                                                     TZVP                
Number of atoms                            I               15
Info1-9                                    I   N=           9
          41          32        1002           0           0         100
           6          18        -802
Full Title                                 C   N=           1
Bare Site   
Route                                      C   N=           6
#P Geom=AllCheck Guess=TCheck SCRF=Check GenChk RwB97XD/TZVP
 Freq       
Charge                                     I                0
Multiplicity                               I                1
Number of electrons                        I               90
Number of alpha electrons                  I               45
Number of beta electrons                   I               45
Number of basis functions                  I              213
Number of independent functions            I              213
Number of point charges in /Mol/           I                0
Number of translation vectors              I                0
Atomic numbers                             I   N=          15
          14           8           8           1          14           8
           1           8           8           8           8           1
           1           1           1
Nuclear charges                            R   N=          15
  1.40000000E+01  8.00000000E+00  8.00000000E+00  1.00000000E+00  1.40000000E+01
  8.00000000E+00  1.00000000E+00  8.00000000E+00  8.00000000E+00  8.00000000E+00
  8.00000000E+00  1.00000000E+00  1.00000000E+00  1.00000000E+00  1.00000000E+00
Current cartesian coordinates              R   N=          45
 -2.28988372E+00 -1.74806261E+00 -3.63513176E+00 -3.12819654E-01  1.36554170E-01
 -2.22220825E+00 -1.37894318E+00 -4.72678481E+00 -3.40218002E+00  1.13698979E+00
 -6.52134333E-01 -1.46850941E+00  8.94417357E-01 -6.54003382E+00 -2.39994580E+00
  2.93840013E+00 -4.70610892E+00 -9.59401947E-01  4.43970642E+00 -5.43000093E+00
 -2.62537012E-01 -5.13174630E+00 -1.51135164E+00 -2.41434479E+00 -2.55691805E+00
 -1.03839866E+00 -6.64510134E+00 -2.34442169E-01 -8.72280975E+00 -4.97364386E-01
  2.20548748E+00 -8.05826633E+00 -4.77617531E+00 -6.33656701E+00 -2.55524874E+00
 -3.26429222E+00 -3.76173877E+00 -2.08229576E+00 -7.49504877E+00 -1.43960505E+00
 -9.76678460E+00 -1.34673103E+00  1.00032460E+00 -9.10224117E+00 -5.62554195E+00
Number of symbols in /Mol/                 I                0
Int Atom Types                             I   N=          15
           0           0           0           0           0           0
           0           0           0           0           0           0
           0           0           0
Force Field                                I                0
Atom Types                                 C   N=          15
                                                            
                                                            
                                                            
MM charges                                 R   N=          15
  0.00000000E+00  0.00000000E+00  0.00000000E+00  0.00000000E+00  0.00000000E+00
  0.00000000E+00  0.00000000E+00  0.00000000E+00  0.00000000E+00  0.00000000E+00
  0.00000000E+00  0.00000000E+00  0.00000000E+00  0.00000000E+00  0.00000000E+00
Integer atomic weights                     I   N=          15
          28          16          16           1          28          16
           1   100000000   100000000   100000000   100000000   100000000
   100000000   100000000   100000000
Real atomic weights                        R   N=          15
  2.79769284E+01  1.59949146E+01  1.59949146E+01  1.00782504E+00  2.79769284E+01
  1.59949146E+01  1.00782504E+00  1.00000000E+08  1.00000000E+08  1.00000000E+08
  1.00000000E+08  1.00000000E+08  1.00000000E+08  1.00000000E+08  1.00000000E+08
Atom fragment info                         I   N=          15
           0           0           0           0           0           0
           0           0           0           0           0           0
           0           0           0
Atom residue num                           I   N=          15
           0           0           0           0           0           0
           0           0           0           0           0           0
           0           0           0
Nuclear spins                              I   N=          15
           0           0           0           1           0           0
           1           0           0           0           0           0
           0           0           0
Nuclear ZEff                               R   N=          15
 -1.22500000E+01 -5.60000000E+00 -5.60000000E+00 -1.00000000E+00 -1.22500000E+01
 -5.60000000E+00 -1.00000000E+00 -5.60000000E+00 -5.60000000E+00 -5.60000000E+00
 -5.60000000E+00 -1.00000000E+00 -1.00000000E+00 -1.00000000E+00 -1.00000000E+00
Nuclear ZNuc                               R   N=          15
  1.40000000E+01  8.00000000E+00  8.00000000E+00  1.00000000E+00  1.40000000E+01
  8.00000000E+00  1.00000000E+00  8.00000000E+00  8.00000000E+00  8.00000000E+00
  8.00000000E+00  1.00000000E+00  1.00000000E+00  1.00000000E+00  1.00000000E+00
Nuclear QMom                               R   N=          15
  0.00000000E+00  0.00000000E+00  0.00000000E+00  0.00000000E+00  0.00000000E+00
  0.00000000E+00  0.00000000E+00  0.00000000E+00  0.00000000E+00  0.00000000E+00
  0.00000000E+00  0.00000000E+00  0.00000000E+00  0.00000000E+00  0.00000000E+00
Nuclear GFac                               R   N=          15
  0.00000000E+00  0.00000000E+00  0.00000000E+00  2.79284600E+00  0.00000000E+00
  0.00000000E+00  2.79284600E+00  0.00000000E+00  0.00000000E+00  0.00000000E+00
  0.00000000E+00  0.00000000E+00  0.00000000E+00  0.00000000E+00  0.00000000E+00
MicOpt                                     I   N=          15
          -1          -1          -1          -1          -1          -1
          -1          -1          -1          -1          -1          -1
          -1          -1          -1
Number of residues                         I                0
Number of secondary structures             I                0
Redundant internal dimensions              I   N=           4
          81          38          19          24
Redundant internal coordinate indices      I   N=         324
           8          -1           0           0           8          -2
           0           0           8          -3           0           0
           9          -1           0           0           9          -2
           0           0           9          -3           0           0
          10          -1           0           0          10          -2
           0           0          10          -3           0           0
          11          -1           0           0          11          -2
           0           0          11          -3           0           0
          12          -1           0           0          12          -2
           0           0          12          -3           0           0
          13          -1           0           0          13          -2
           0           0          13          -3           0           0
          14          -1           0           0          14          -2
           0           0          14          -3           0           0
          15          -1           0           0          15          -2
           0           0          15          -3           0           0
           1           2           0           0           1           3
           0           0           1           8           0           0
           1           9           0           0           2           4
           0           0           3           5           0           0
           5           6           0           0           5          10
           0           0           5          11           0           0
           6           7           0           0           8          12
           0           0           9          13           0           0
          10          14           0           0          11          15
           0           0           2           1           3           0
           2           1           8           0           2           1
           9           0           3           1           8           0
           3           1           9           0           8           1
           9           0           1           2           4           0
           1           3           5           0           3           5
           6           0           3           5          10           0
           3           5          11           0           6           5
          10           0           6           5          11           0
          10           5          11           0           5           6
           7           0           1           8          12           0
           1           9          13           0           5          10
          14           0           5          11          15           0
           3           1           2           4           8           1
           2           4           9           1           2           4
           2           1           3           5           8           1
           3           5           9           1           3           5
           2           1           8          12           3           1
           8          12           9           1           8          12
           2           1           9          13           3           1
           9          13           8           1           9          13
           1           3           5           6           1           3
           5          10           1           3           5          11
           3           5           6           7          10           5
           6           7          11           5           6           7
           3           5          10          14           6           5
          10          14          11           5          10          14
           3           5          11          15           6           5
          11          15          10           5          11          15
Redundant internal coordinates             R   N=          81
 -5.13174630E+00 -1.51135164E+00 -2.41434479E+00 -2.55691805E+00 -1.03839866E+00
 -6.64510134E+00 -2.34442169E-01 -8.72280975E+00 -4.97364386E-01  2.20548748E+00
 -8.05826633E+00 -4.77617531E+00 -6.33656701E+00 -2.55524874E+00 -3.26429222E+00
 -3.76173877E+00 -2.08229576E+00 -7.49504877E+00 -1.43960505E+00 -9.76678460E+00
 -1.34673103E+00  1.00032460E+00 -9.10224117E+00 -5.62554195E+00  3.07520984E+00
  3.12359810E+00  3.10202125E+00  3.10400502E+00  1.81439768E+00  3.07579478E+00
  3.10101801E+00  3.10783697E+00  3.10972692E+00  1.80653286E+00  1.80657818E+00
  1.80657818E+00  1.80657818E+00  1.80657818E+00  1.94191794E+00  1.94056857E+00
  1.93984904E+00  1.88661302E+00  1.89170809E+00  1.86018146E+00  2.02437262E+00
  2.50148130E+00  1.86492041E+00  1.92309810E+00  1.92883862E+00  1.95023036E+00
  1.94529483E+00  1.85253843E+00  2.08286981E+00  1.96246298E+00  1.96219904E+00
  1.93944519E+00  1.93921042E+00  2.42420838E-02  2.12822308E+00 -2.08572477E+00
 -8.79411184E-02 -2.22340994E+00  2.05004529E+00  3.10065670E+00 -1.04623326E+00
  9.84095721E-01 -3.10095132E+00  1.04298929E+00 -9.83931838E-01  8.42831664E-02
  2.20626977E+00 -2.03504968E+00 -3.12036694E+00  1.05807298E+00 -1.01148604E+00
  1.05749348E+00  3.12794368E+00 -1.03126315E+00 -1.05389219E+00 -3.12494183E+00
  1.03111177E+00
ZRed-IntVec                                I   N=          81
          -1          -1          -1          -1          -1          -1
          -1          -1          -1          -1          -1          -1
          -1          -1          -1          -1          -1          -1
          -1          -1          -1          -1          -1          -1
           0           0           0           0           0           0
           0           0           0           0           0           0
           0           0           0           0           0           0
           0           0           0           0           0           0
           0           0           0           0           0           0
           0           0           0           0           0           0
           0           0           0           0           0           0
           0           0           0           0           0           0
           0           0           0           0           0           0
           0           0           0
ZRed-FPVec                                 R   N=          81
  0.00000000E+00  0.00000000E+00  0.00000000E+00  0.00000000E+00  0.00000000E+00
  0.00000000E+00  0.00000000E+00  0.00000000E+00  0.00000000E+00  0.00000000E+00
  0.00000000E+00  0.00000000E+00  0.00000000E+00  0.00000000E+00  0.00000000E+00
  0.00000000E+00  0.00000000E+00  0.00000000E+00  0.00000000E+00  0.00000000E+00
  0.00000000E+00  0.00000000E+00  0.00000000E+00  0.00000000E+00  0.00000000E+00
  0.00000000E+00  0.00000000E+00  0.00000000E+00  0.00000000E+00  0.00000000E+00
  0.00000000E+00  0.00000000E+00  0.00000000E+00  0.00000000E+00  0.00000000E+00
  0.00000000E+00  0.00000000E+00  0.00000000E+00  0.00000000E+00  0.00000000E+00
  0.00000000E+00  0.00000000E+00  0.00000000E+00  0.00000000E+00  0.00000000E+00
  0.00000000E+00  0.00000000E+00  0.00000000E+00  0.00000000E+00  0.00000000E+00
  0.00000000E+00  0.00000000E+00  0.00000000E+00  0.00000000E+00  0.00000000E+00
  0.00000000E+00  0.00000000E+00  0.00000000E+00  0.00000000E+00  0.00000000E+00
  0.00000000E+00  0.00000000E+00  0.00000000E+00  0.00000000E+00  0.00000000E+00
  0.00000000E+00  0.00000000E+00  0.00000000E+00  0.00000000E+00  0.00000000E+00
  0.00000000E+00  0.00000000E+00  0.00000000E+00  0.00000000E+00  0.00000000E+00
  0.00000000E+00  0.00000000E+00  0.00000000E+00  0.00000000E+00  0.00000000E+00
  0.00000000E+00
ZRed-Constraint1                           R   N=          81
 -5.13174630E+00 -1.51135164E+00 -2.41434479E+00 -2.55691805E+00 -1.03839866E+00
 -6.64510134E+00 -2.34442169E-01 -8.72280975E+00 -4.97364386E-01  2.20548748E+00
 -8.05826633E+00 -4.77617531E+00 -6.33656701E+00 -2.55524874E+00 -3.26429222E+00
 -3.76173877E+00 -2.08229576E+00 -7.49504877E+00 -1.43960505E+00 -9.76678460E+00
 -1.34673103E+00  1.00032460E+00 -9.10224117E+00 -5.62554195E+00  3.07520984E+00
  3.12359810E+00  3.10202125E+00  3.10400502E+00  1.81439768E+00  3.07579478E+00
  3.10101801E+00  3.10783697E+00  3.10972692E+00  1.80653286E+00  1.80657818E+00
  1.80657818E+00  1.80657818E+00  1.80657818E+00  1.94191794E+00  1.94056857E+00
  1.93984904E+00  1.88661302E+00  1.89170809E+00  1.86018146E+00  2.02437262E+00
  2.50148130E+00  1.86492041E+00  1.92309810E+00  1.92883862E+00  1.95023036E+00
  1.94529483E+00  1.85253843E+00  2.08286981E+00  1.96246298E+00  1.96219904E+00
  1.93944519E+00  1.93921042E+00  2.42420838E-02  2.12822308E+00 -2.08572477E+00
 -8.79411184E-02 -2.22340994E+00  2.05004529E+00  3.10065670E+00 -1.04623326E+00
  9.84095721E-01 -3.10095132E+00  1.04298929E+00 -9.83931838E-01  8.42831664E-02
  2.20626977E+00 -2.03504968E+00 -3.12036694E+00  1.05807298E+00 -1.01148604E+00
  1.05749348E+00  3.12794368E+00 -1.03126315E+00 -1.05389219E+00 -3.12494183E+00
  1.03111177E+00
ZRed-Constraint2                           R   N=          81
 -5.13174630E+00 -1.51135164E+00 -2.41434479E+00 -2.55691805E+00 -1.03839866E+00
 -6.64510134E+00 -2.34442169E-01 -8.72280975E+00 -4.97364386E-01  2.20548748E+00
 -8.05826633E+00 -4.77617531E+00 -6.33656701E+00 -2.55524874E+00 -3.26429222E+00
 -3.76173877E+00 -2.08229576E+00 -7.49504877E+00 -1.43960505E+00 -9.76678460E+00
 -1.34673103E+00  1.00032460E+00 -9.10224117E+00 -5.62554195E+00  3.05916184E+00
  3.09554646E+00  3.11426867E+00  3.11426867E+00  1.81775825E+00  3.04505212E+00
  3.09650222E+00  3.11426867E+00  3.11426867E+00  1.80820013E+00  1.80657818E+00
  1.80657818E+00  1.80657818E+00  1.80657818E+00  1.95575891E+00  1.93552667E+00
  1.93988626E+00  1.88938666E+00  1.88872758E+00  1.85051864E+00  2.04327066E+00
  2.41286613E+00  1.86032261E+00  1.94199248E+00  1.94144707E+00  1.93711431E+00
  1.93667873E+00  1.84785768E+00  2.10294556E+00  1.94104191E+00  1.94104191E+00
  1.90567048E+00  1.90567048E+00  2.09992203E-02  2.13450937E+00 -2.09474263E+00
 -6.97640849E-02 -2.20968682E+00  2.07519830E+00  3.13707626E+00 -9.93909529E-01
  1.02939374E+00 -3.13425229E+00  9.94355927E-01 -1.02939374E+00  6.56181022E-02
  2.17975981E+00 -2.04767403E+00  3.13812317E+00  1.02087132E+00 -1.02872826E+00
  1.01959147E+00  3.08814905E+00 -1.09197440E+00 -1.01994459E+00 -3.08786561E+00
  1.09197440E+00
Number of contracted shells                I              107
Number of primitive shells                 I              210
Pure/Cartesian d shells                    I                0
Pure/Cartesian f shells                    I                0
Highest angular momentum                   I                2
Largest degree of contraction              I                7
Shell types                                I   N=         107
           0           0           0           0           0           1
           1           1           1          -2           0           0
           0           0           0           1           1           1
          -2           0           0           0           0           0
           1           1           1          -2           0           0
           0           1           0           0           0           0
           0           1           1           1           1          -2
           0           0           0           0           0           1
           1           1          -2           0           0           0
           1           0           0           0           0           0
           1           1           1          -2           0           0
           0           0           0           1           1           1
          -2           0           0           0           0           0
           1           1           1          -2           0           0
           0           0           0           1           1           1
          -2           0           0           0           1           0
           0           0           1           0           0           0
           1           0           0           0           1
Number of primitives per shell             I   N=         107
           7           3           2           1           1           6
           1           1           1           1           6           2
           1           1           1           4           1           1
           1           6           2           1           1           1
           4           1           1           1           3           1
           1           1           7           3           2           1
           1           6           1           1           1           1
           6           2           1           1           1           4
           1           1           1           3           1           1
           1           6           2           1           1           1
           4           1           1           1           6           2
           1           1           1           4           1           1
           1           6           2           1           1           1
           4           1           1           1           6           2
           1           1           1           4           1           1
           1           3           1           1           1           3
           1           1           1           3           1           1
           1           3           1           1           1
Shell to atom map                          I   N=         107
           1           1           1           1           1           1
           1           1           1           1           2           2
           2           2           2           2           2           2
           2           3           3           3           3           3
           3           3           3           3           4           4
           4           4           5           5           5           5
           5           5           5           5           5           5
           6           6           6           6           6           6
           6           6           6           7           7           7
           7           8           8           8           8           8
           8           8           8           8           9           9
           9           9           9           9           9           9
           9          10          10          10          10          10
          10          10          10          10          11          11
          11          11          11          11          11          11
          11          12          12          12          12          13
          13          13          13          14          14          14
          14          15          15          15          15
Primitive exponents                        R   N=         210
  4.47733581E+04  6.71719921E+03  1.52889603E+03  4.32547466E+02  1.40615052E+02
  4.98576367E+01  1.84349749E+01  8.65338861E+01  2.66246068E+01  4.49530572E+00
  2.10350457E+00  1.01060949E+00  2.37017510E-01  8.57034100E-02  3.94475036E+02
  9.31376831E+01  2.95196087E+01  1.07816638E+01  4.16265748E+00  1.62479730E+00
  5.43066600E-01  2.05820740E-01  7.00534900E-02  3.50000000E-01  2.70323826E+04
  4.05238714E+03  9.22327227E+02  2.61240710E+02  8.53546413E+01  3.10350352E+01
  1.22608607E+01  4.99870760E+00  1.17031082E+00  4.64747410E-01  1.85045360E-01
  6.32749548E+01  1.46270494E+01  4.45012235E+00  1.52757996E+00  5.29351180E-01
  1.74784210E-01  1.20000000E+00  2.70323826E+04  4.05238714E+03  9.22327227E+02
  2.61240710E+02  8.53546413E+01  3.10350352E+01  1.22608607E+01  4.99870760E+00
  1.17031082E+00  4.64747410E-01  1.85045360E-01  6.32749548E+01  1.46270494E+01
  4.45012235E+00  1.52757996E+00  5.29351180E-01  1.74784210E-01  1.20000000E+00
  3.40613410E+01  5.12357460E+00  1.16466260E+00  3.27230410E-01  1.03072410E-01
  8.00000000E-01  4.47733581E+04  6.71719921E+03  1.52889603E+03  4.32547466E+02
  1.40615052E+02  4.98576367E+01  1.84349749E+01  8.65338861E+01  2.66246068E+01
  4.49530572E+00  2.10350457E+00  1.01060949E+00  2.37017510E-01  8.57034100E-02
  3.94475036E+02  9.31376831E+01  2.95196087E+01  1.07816638E+01  4.16265748E+00
  1.62479730E+00  5.43066600E-01  2.05820740E-01  7.00534900E-02  3.50000000E-01
  2.70323826E+04  4.05238714E+03  9.22327227E+02  2.61240710E+02  8.53546413E+01
  3.10350352E+01  1.22608607E+01  4.99870760E+00  1.17031082E+00  4.64747410E-01
  1.85045360E-01  6.32749548E+01  1.46270494E+01  4.45012235E+00  1.52757996E+00
  5.29351180E-01  1.74784210E-01  1.20000000E+00  3.40613410E+01  5.12357460E+00
  1.16466260E+00  3.27230410E-01  1.03072410E-01  8.00000000E-01  2.70323826E+04
  4.05238714E+03  9.22327227E+02  2.61240710E+02  8.53546413E+01  3.10350352E+01
  1.22608607E+01  4.99870760E+00  1.17031082E+00  4.64747410E-01  1.85045360E-01
  6.32749548E+01  1.46270494E+01  4.45012235E+00  1.52757996E+00  5.29351180E-01
  1.74784210E-01  1.20000000E+00  2.70323826E+04  4.05238714E+03  9.22327227E+02
  2.61240710E+02  8.53546413E+01  3.10350352E+01  1.22608607E+01  4.99870760E+00
  1.17031082E+00  4.64747410E-01  1.85045360E-01  6.32749548E+01  1.46270494E+01
  4.45012235E+00  1.52757996E+00  5.29351180E-01  1.74784210E-01  1.20000000E+00
  2.70323826E+04  4.05238714E+03  9.22327227E+02  2.61240710E+02  8.53546413E+01
  3.10350352E+01  1.22608607E+01  4.99870760E+00  1.17031082E+00  4.64747410E-01
  1.85045360E-01  6.32749548E+01  1.46270494E+01  4.45012235E+00  1.52757996E+00
  5.29351180E-01  1.74784210E-01  1.20000000E+00  2.70323826E+04  4.05238714E+03
  9.22327227E+02  2.61240710E+02  8.53546413E+01  3.10350352E+01  1.22608607E+01
  4.99870760E+00  1.17031082E+00  4.64747410E-01  1.85045360E-01  6.32749548E+01
  1.46270494E+01  4.45012235E+00  1.52757996E+00  5.29351180E-01  1.74784210E-01
  1.20000000E+00  3.40613410E+01  5.12357460E+00  1.16466260E+00  3.27230410E-01
  1.03072410E-01  8.00000000E-01  3.40613410E+01  5.12357460E+00  1.16466260E+00
  3.27230410E-01  1.03072410E-01  8.00000000E-01  3.40613410E+01  5.12357460E+00
  1.16466260E+00  3.27230410E-01  1.03072410E-01  8.00000000E-01  3.40613410E+01
  5.12357460E+00  1.16466260E+00  3.27230410E-01  1.03072410E-01  8.00000000E-01
Contraction coefficients                   R   N=         210
  5.48005925E-04  4.23448878E-03  2.17449025E-02  8.47654859E-02  2.44428284E-01
  4.51000565E-01  3.35676166E-01  7.59858840E-02  3.37747884E-01 -1.16355340E+00
  7.00736052E-01  3.20103621E-01  1.00000000E+00  1.00000000E+00  2.77075940E-03
  2.16682267E-02  9.70506925E-02  2.69488468E-01  4.43896903E-01  3.62626680E-01
  1.00000000E+00  1.00000000E+00  1.00000000E+00  1.00000000E+00  5.72265385E-04
  4.43533331E-03  2.30201034E-02  9.28224938E-02  2.93784997E-01  6.74016046E-01
  6.38399375E-01  3.95345866E-01  1.00000000E+00  1.00000000E+00  1.00000000E+00
  1.20183316E-02  8.30054304E-02  3.19917439E-01  7.07155426E-01  1.00000000E+00
  1.00000000E+00  1.00000000E+00  5.72265385E-04  4.43533331E-03  2.30201034E-02
  9.28224938E-02  2.93784997E-01  6.74016046E-01  6.38399375E-01  3.95345866E-01
  1.00000000E+00  1.00000000E+00  1.00000000E+00  1.20183316E-02  8.30054304E-02
  3.19917439E-01  7.07155426E-01  1.00000000E+00  1.00000000E+00  1.00000000E+00
  2.54393072E-02  1.90085949E-01  8.52441130E-01  1.00000000E+00  1.00000000E+00
  1.00000000E+00  5.48005925E-04  4.23448878E-03  2.17449025E-02  8.47654859E-02
  2.44428284E-01  4.51000565E-01  3.35676166E-01  7.59858840E-02  3.37747884E-01
 -1.16355340E+00  7.00736052E-01  3.20103621E-01  1.00000000E+00  1.00000000E+00
  2.77075940E-03  2.16682267E-02  9.70506925E-02  2.69488468E-01  4.43896903E-01
  3.62626680E-01  1.00000000E+00  1.00000000E+00  1.00000000E+00  1.00000000E+00
  5.72265385E-04  4.43533331E-03  2.30201034E-02  9.28224938E-02  2.93784997E-01
  6.74016046E-01  6.38399375E-01  3.95345866E-01  1.00000000E+00  1.00000000E+00
  1.00000000E+00  1.20183316E-02  8.30054304E-02  3.19917439E-01  7.07155426E-01
  1.00000000E+00  1.00000000E+00  1.00000000E+00  2.54393072E-02  1.90085949E-01
  8.52441130E-01  1.00000000E+00  1.00000000E+00  1.00000000E+00  5.72265385E-04
  4.43533331E-03  2.30201034E-02  9.28224938E-02  2.93784997E-01  6.74016046E-01
  6.38399375E-01  3.95345866E-01  1.00000000E+00  1.00000000E+00  1.00000000E+00
  1.20183316E-02  8.30054304E-02  3.19917439E-01  7.07155426E-01  1.00000000E+00
  1.00000000E+00  1.00000000E+00  5.72265385E-04  4.43533331E-03  2.30201034E-02
  9.28224938E-02  2.93784997E-01  6.74016046E-01  6.38399375E-01  3.95345866E-01
  1.00000000E+00  1.00000000E+00  1.00000000E+00  1.20183316E-02  8.30054304E-02
  3.19917439E-01  7.07155426E-01  1.00000000E+00  1.00000000E+00  1.00000000E+00
  5.72265385E-04  4.43533331E-03  2.30201034E-02  9.28224938E-02  2.93784997E-01
  6.74016046E-01  6.38399375E-01  3.95345866E-01  1.00000000E+00  1.00000000E+00
  1.00000000E+00  1.20183316E-02  8.30054304E-02  3.19917439E-01  7.07155426E-01
  1.00000000E+00  1.00000000E+00  1.00000000E+00  5.72265385E-04  4.43533331E-03
  2.30201034E-02  9.28224938E-02  2.93784997E-01  6.74016046E-01  6.38399375E-01
  3.95345866E-01  1.00000000E+00  1.00000000E+00  1.00000000E+00  1.20183316E-02
  8.30054304E-02  3.19917439E-01  7.07155426E-01  1.00000000E+00  1.00000000E+00
  1.00000000E+00  2.54393072E-02  1.90085949E-01  8.52441130E-01  1.00000000E+00
  1.00000000E+00  1.00000000E+00  2.54393072E-02  1.90085949E-01  8.52441130E-01
  1.00000000E+00  1.00000000E+00  1.00000000E+00  2.54393072E-02  1.90085949E-01
  8.52441130E-01  1.00000000E+00  1.00000000E+00  1.00000000E+00  2.54393072E-02
  1.90085949E-01  8.52441130E-01  1.00000000E+00  1.00000000E+00  1.00000000E+00
Coordinates of each shell                  R   N=         321
 -2.28988372E+00 -1.74806261E+00 -3.63513176E+00 -2.28988372E+00 -1.74806261E+00
 -3.63513176E+00 -2.28988372E+00 -1.74806261E+00 -3.63513176E+00 -2.28988372E+00
 -1.74806261E+00 -3.63513176E+00 -2.28988372E+00 -1.74806261E+00 -3.63513176E+00
 -2.28988372E+00 -1.74806261E+00 -3.63513176E+00 -2.28988372E+00 -1.74806261E+00
 -3.63513176E+00 -2.28988372E+00 -1.74806261E+00 -3.63513176E+00 -2.28988372E+00
 -1.74806261E+00 -3.63513176E+00 -2.28988372E+00 -1.74806261E+00 -3.63513176E+00
 -3.12819654E-01  1.36554170E-01 -2.22220825E+00 -3.12819654E-01  1.36554170E-01
 -2.22220825E+00 -3.12819654E-01  1.36554170E-01 -2.22220825E+00 -3.12819654E-01
  1.36554170E-01 -2.22220825E+00 -3.12819654E-01  1.36554170E-01 -2.22220825E+00
 -3.12819654E-01  1.36554170E-01 -2.22220825E+00 -3.12819654E-01  1.36554170E-01
 -2.22220825E+00 -3.12819654E-01  1.36554170E-01 -2.22220825E+00 -3.12819654E-01
  1.36554170E-01 -2.22220825E+00 -1.37894318E+00 -4.72678481E+00 -3.40218002E+00
 -1.37894318E+00 -4.72678481E+00 -3.40218002E+00 -1.37894318E+00 -4.72678481E+00
 -3.40218002E+00 -1.37894318E+00 -4.72678481E+00 -3.40218002E+00 -1.37894318E+00
 -4.72678481E+00 -3.40218002E+00 -1.37894318E+00 -4.72678481E+00 -3.40218002E+00
 -1.37894318E+00 -4.72678481E+00 -3.40218002E+00 -1.37894318E+00 -4.72678481E+00
 -3.40218002E+00 -1.37894318E+00 -4.72678481E+00 -3.40218002E+00  1.13698979E+00
 -6.52134333E-01 -1.46850941E+00  1.13698979E+00 -6.52134333E-01 -1.46850941E+00
  1.13698979E+00 -6.52134333E-01 -1.46850941E+00  1.13698979E+00 -6.52134333E-01