 Entering Gaussian System, Link 0=/sw/chem/g09/g09
 Initial command:
 /sw/chem/g09/l1.exe "/scratch_local/salman/opt/Gau-14908.inp" -scrdir="/scratch_local/salman/opt/"
 Entering Link 1 = /sw/chem/g09/l1.exe PID=     14909.
  
 Copyright (c) 1988,1990,1992,1993,1995,1998,2003,2009,2013,
            Gaussian, Inc.  All Rights Reserved.
  
 This is part of the Gaussian(R) 09 program.  It is based on
 the Gaussian(R) 03 system (copyright 2003, Gaussian, Inc.),
 the Gaussian(R) 98 system (copyright 1998, Gaussian, Inc.),
 the Gaussian(R) 94 system (copyright 1995, Gaussian, Inc.),
 the Gaussian 92(TM) system (copyright 1992, Gaussian, Inc.),
 the Gaussian 90(TM) system (copyright 1990, Gaussian, Inc.),
 the Gaussian 88(TM) system (copyright 1988, Gaussian, Inc.),
 the Gaussian 86(TM) system (copyright 1986, Carnegie Mellon
 University), and the Gaussian 82(TM) system (copyright 1983,
 Carnegie Mellon University). Gaussian is a federally registered
 trademark of Gaussian, Inc.
  
 This software contains proprietary and confidential information,
 including trade secrets, belonging to Gaussian, Inc.
  
 This software is provided under written license and may be
 used, copied, transmitted, or stored only in accord with that
 written license.
  
 The following legend is applicable only to US Government
 contracts under FAR:
  
                    RESTRICTED RIGHTS LEGEND
  
 Use, reproduction and disclosure by the US Government is
 subject to restrictions as set forth in subparagraphs (a)
 and (c) of the Commercial Computer Software - Restricted
 Rights clause in FAR 52.227-19.
  
 Gaussian, Inc.
 340 Quinnipiac St., Bldg. 40, Wallingford CT 06492
  
  
 ---------------------------------------------------------------
 Warning -- This program may not be used in any manner that
 competes with the business of Gaussian, Inc. or will provide
 assistance to any competitor of Gaussian, Inc.  The licensee
 of this program is prohibited from giving any competitor of
 Gaussian, Inc. access to this program.  By using this program,
 the user acknowledges that Gaussian, Inc. is engaged in the
 business of creating and licensing software in the field of
 computational chemistry and represents and warrants to the
 licensee that it is not a competitor of Gaussian, Inc. and that
 it will not use this program in any manner prohibited above.
 ---------------------------------------------------------------
  

 Cite this work as:
 Gaussian 09, Revision D.01,
 M. J. Frisch, G. W. Trucks, H. B. Schlegel, G. E. Scuseria, 
 M. A. Robb, J. R. Cheeseman, G. Scalmani, V. Barone, B. Mennucci, 
 G. A. Petersson, H. Nakatsuji, M. Caricato, X. Li, H. P. Hratchian, 
 A. F. Izmaylov, J. Bloino, G. Zheng, J. L. Sonnenberg, M. Hada, 
 M. Ehara, K. Toyota, R. Fukuda, J. Hasegawa, M. Ishida, T. Nakajima, 
 Y. Honda, O. Kitao, H. Nakai, T. Vreven, J. A. Montgomery, Jr., 
 J. E. Peralta, F. Ogliaro, M. Bearpark, J. J. Heyd, E. Brothers, 
 K. N. Kudin, V. N. Staroverov, T. Keith, R. Kobayashi, J. Normand, 
 K. Raghavachari, A. Rendell, J. C. Burant, S. S. Iyengar, J. Tomasi, 
 M. Cossi, N. Rega, J. M. Millam, M. Klene, J. E. Knox, J. B. Cross, 
 V. Bakken, C. Adamo, J. Jaramillo, R. Gomperts, R. E. Stratmann, 
 O. Yazyev, A. J. Austin, R. Cammi, C. Pomelli, J. W. Ochterski, 
 R. L. Martin, K. Morokuma, V. G. Zakrzewski, G. A. Voth, 
 P. Salvador, J. J. Dannenberg, S. Dapprich, A. D. Daniels, 
 O. Farkas, J. B. Foresman, J. V. Ortiz, J. Cioslowski, 
 and D. J. Fox, Gaussian, Inc., Wallingford CT, 2013.
 
 ******************************************
 Gaussian 09:  ES64L-G09RevD.01 24-Apr-2013
                 3-Feb-2019 
 ******************************************
 %nprocshared=12
 Will use up to   12 processors via shared memory.
 %chk=stuff.chk
 -------------------------------------------
 #p opt=modredundant freq wb97xd/TZVP nosymm
 -------------------------------------------
 1/14=-1,18=120,19=15,26=3,38=1/1,3;
 2/9=110,12=2,15=1,17=6,18=5,40=1/2;
 3/5=19,7=101,11=2,16=1,25=1,30=1,71=1,74=-58/1,2,3;
 4//1;
 5/5=2,38=5/2;
 6/7=2,8=2,9=2,10=2,28=1/1;
 7/30=1/1,2,3,16;
 1/14=-1,18=20,19=15,26=3/3(2);
 2/9=110,15=1/2;
 99//99;
 2/9=110,15=1/2;
 3/5=19,7=101,11=2,16=1,25=1,30=1,71=1,74=-58/1,2,3;
 4/5=5,16=3,69=1/1;
 5/5=2,38=5/2;
 7/30=1/1,2,3,16;
 1/14=-1,18=20,19=15,26=3/3(-5);
 2/9=110,15=1/2;
 6/7=2,8=2,9=2,10=2,19=2,28=1/1;
 99/9=1/99;
 Leave Link    1 at Sun Feb  3 01:45:22 2019, MaxMem=           0 cpu:         0.5
 (Enter /sw/chem/g09/l101.exe)
 ---------
 Bare Site
 ---------
 Symbolic Z-matrix:
 Charge =  0 Multiplicity = 1
 Si                   -1.212    -0.97215  -1.92981 
 O                    -0.14015  -0.02868  -1.16717 
 O                    -0.79935  -2.55572  -1.85646 
 H                     0.62153  -0.46281  -0.77137 
 Si                    0.4163   -3.4568   -1.3026 
 O                     1.45335  -2.43341  -0.55279 
 H                     2.25282  -2.76509  -0.14484 
 O(Iso=100000000)     -2.7156   -0.79977  -1.27762 
 O(Iso=100000000)     -1.35306  -0.5495   -3.51644 
 O(Iso=100000000)     -0.12406  -4.61591  -0.26319 
 O(Iso=100000000)      1.16709  -4.26425  -2.52744 
 H(Iso=100000000)     -3.35317  -1.35218  -1.72739 
 H(Iso=100000000)     -1.99063  -1.1019   -3.96621 
 H(Iso=100000000)     -0.76181  -5.16836  -0.71266 
 H(Iso=100000000)      0.52935  -4.8167   -2.97691 
 
 The following ModRedundant input section has been read:
 X       8 F                                                                   
 X       9 F                                                                   
 X      10 F                                                                   
 X      11 F                                                                   
 X      12 F                                                                   
 X      13 F                                                                   
 X      14 F                                                                   
 X      15 F                                                                   
 
 NAtoms=     15 NQM=       15 NQMF=       0 NMMI=      0 NMMIF=      0
                NMic=       0 NMicF=      0.
                    Isotopes and Nuclear Properties:
 (Nuclear quadrupole moments (NQMom) in fm**2, nuclear magnetic moments (NMagM)
  in nuclear magnetons)

  Atom         1           2           3           4           5           6           7           8           9          10
 IAtWgt=          28          16          16           1          28          16           1   100000000   100000000   100000000
 AtmWgt=  27.9769284  15.9949146  15.9949146   1.0078250  27.9769284  15.9949146   1.0078250************************************
 NucSpn=           0           0           0           1           0           0           1           0           0           0
 AtZEff=   0.0000000   0.0000000   0.0000000   0.0000000   0.0000000   0.0000000   0.0000000   0.0000000   0.0000000   0.0000000
 NQMom=    0.0000000   0.0000000   0.0000000   0.0000000   0.0000000   0.0000000   0.0000000   0.0000000   0.0000000   0.0000000
 NMagM=    0.0000000   0.0000000   0.0000000   2.7928460   0.0000000   0.0000000   2.7928460   0.0000000   0.0000000   0.0000000
 AtZNuc=  14.0000000   8.0000000   8.0000000   1.0000000  14.0000000   8.0000000   1.0000000   8.0000000   8.0000000   8.0000000

  Atom        11          12          13          14          15
 IAtWgt=   100000000   100000000   100000000   100000000   100000000
 AtmWgt=************************************************************
 NucSpn=           0           0           0           0           0
 AtZEff=   0.0000000   0.0000000   0.0000000   0.0000000   0.0000000
 NQMom=    0.0000000   0.0000000   0.0000000   0.0000000   0.0000000
 NMagM=    0.0000000   0.0000000   0.0000000   0.0000000   0.0000000
 AtZNuc=   8.0000000   1.0000000   1.0000000   1.0000000   1.0000000
 Leave Link  101 at Sun Feb  3 01:45:22 2019, MaxMem=    33554432 cpu:         1.0
 (Enter /sw/chem/g09/l103.exe)

 GradGradGradGradGradGradGradGradGradGradGradGradGradGradGradGradGradGrad
 Berny optimization.
 Initialization pass.
                           ----------------------------
                           !    Initial Parameters    !
                           ! (Angstroms and Degrees)  !
 --------------------------                            --------------------------
 ! Name  Definition              Value          Derivative Info.                !
 --------------------------------------------------------------------------------
 ! X8    R(8,-1)                -2.7156         Frozen                          !
 ! Y8    R(8,-2)                -0.7998         Frozen                          !
 ! Z8    R(8,-3)                -1.2776         Frozen                          !
 ! X9    R(9,-1)                -1.3531         Frozen                          !
 ! Y9    R(9,-2)                -0.5495         Frozen                          !
 ! Z9    R(9,-3)                -3.5164         Frozen                          !
 ! X10   R(10,-1)               -0.1241         Frozen                          !
 ! Y10   R(10,-2)               -4.6159         Frozen                          !
 ! Z10   R(10,-3)               -0.2632         Frozen                          !
 ! X11   R(11,-1)                1.1671         Frozen                          !
 ! Y11   R(11,-2)               -4.2643         Frozen                          !
 ! Z11   R(11,-3)               -2.5274         Frozen                          !
 ! X12   R(12,-1)               -3.3532         Frozen                          !
 ! Y12   R(12,-2)               -1.3522         Frozen                          !
 ! Z12   R(12,-3)               -1.7274         Frozen                          !
 ! X13   R(13,-1)               -1.9906         Frozen                          !
 ! Y13   R(13,-2)               -1.1019         Frozen                          !
 ! Z13   R(13,-3)               -3.9662         Frozen                          !
 ! X14   R(14,-1)               -0.7618         Frozen                          !
 ! Y14   R(14,-2)               -5.1684         Frozen                          !
 ! Z14   R(14,-3)               -0.7127         Frozen                          !
 ! X15   R(15,-1)                0.5293         Frozen                          !
 ! Y15   R(15,-2)               -4.8167         Frozen                          !
 ! Z15   R(15,-3)               -2.9769         Frozen                          !
 ! R1    R(1,2)                  1.6188         estimate D2E/DX2                !
 ! R2    R(1,3)                  1.6381         estimate D2E/DX2                !
 ! R3    R(1,8)                  1.648          estimate D2E/DX2                !
 ! R4    R(1,9)                  1.648          estimate D2E/DX2                !
 ! R5    R(2,4)                  0.9619         estimate D2E/DX2                !
 ! R6    R(3,5)                  1.6114         estimate D2E/DX2                !
 ! R7    R(5,6)                  1.6386         estimate D2E/DX2                !
 ! R8    R(5,10)                 1.648          estimate D2E/DX2                !
 ! R9    R(5,11)                 1.648          estimate D2E/DX2                !
 ! R10   R(6,7)                  0.9569         estimate D2E/DX2                !
 ! R11   R(8,12)                 0.956          estimate D2E/DX2                !
 ! R12   R(9,13)                 0.956          estimate D2E/DX2                !
 ! R13   R(10,14)                0.956          estimate D2E/DX2                !
 ! R14   R(11,15)                0.956          estimate D2E/DX2                !
 ! A1    A(2,1,3)              112.0567         estimate D2E/DX2                !
 ! A2    A(2,1,8)              110.8975         estimate D2E/DX2                !
 ! A3    A(2,1,9)              111.1473         estimate D2E/DX2                !
 ! A4    A(3,1,8)              108.2539         estimate D2E/DX2                !
 ! A5    A(3,1,9)              108.2161         estimate D2E/DX2                !
 ! A6    A(8,1,9)              106.0269         estimate D2E/DX2                !
 ! A7    A(1,2,4)              117.0708         estimate D2E/DX2                !
 ! A8    A(1,3,5)              138.247          estimate D2E/DX2                !
 ! A9    A(3,5,6)              106.5886         estimate D2E/DX2                !
 ! A10   A(3,5,10)             111.268          estimate D2E/DX2                !
 ! A11   A(3,5,11)             111.2367         estimate D2E/DX2                !
 ! A12   A(6,5,10)             110.9885         estimate D2E/DX2                !
 ! A13   A(6,5,11)             110.9635         estimate D2E/DX2                !
 ! A14   A(10,5,11)            105.8744         estimate D2E/DX2                !
 ! A15   A(5,6,7)              120.4899         estimate D2E/DX2                !
 ! A16   A(1,8,12)             111.2135         estimate D2E/DX2                !
 ! A17   A(1,9,13)             111.2135         estimate D2E/DX2                !
 ! A18   A(5,10,14)            109.1869         estimate D2E/DX2                !
 ! A19   A(5,11,15)            109.1869         estimate D2E/DX2                !
 ! D1    D(3,1,2,4)              1.2032         estimate D2E/DX2                !
 ! D2    D(8,1,2,4)            122.2984         estimate D2E/DX2                !
 ! D3    D(9,1,2,4)           -120.0199         estimate D2E/DX2                !
 ! D4    D(2,1,3,5)             -3.9972         estimate D2E/DX2                !
 ! D5    D(8,1,3,5)           -126.6057         estimate D2E/DX2                !
 ! D6    D(9,1,3,5)            118.9001         estimate D2E/DX2                !
 ! D7    D(2,1,8,12)           179.7412         estimate D2E/DX2                !
 ! D8    D(3,1,8,12)           -56.9468         estimate D2E/DX2                !
 ! D9    D(9,1,8,12)            58.9799         estimate D2E/DX2                !
 ! D10   D(2,1,9,13)          -179.5794         estimate D2E/DX2                !
 ! D11   D(3,1,9,13)            56.9724         estimate D2E/DX2                !
 ! D12   D(8,1,9,13)           -58.9799         estimate D2E/DX2                !
 ! D13   D(1,3,5,6)              3.7596         estimate D2E/DX2                !
 ! D14   D(1,3,5,10)           124.891          estimate D2E/DX2                !
 ! D15   D(1,3,5,11)          -117.3231         estimate D2E/DX2                !
 ! D16   D(3,5,6,7)            179.8012         estimate D2E/DX2                !
 ! D17   D(10,5,6,7)            58.4916         estimate D2E/DX2                !
 ! D18   D(11,5,6,7)           -58.9418         estimate D2E/DX2                !
 ! D19   D(3,5,10,14)           58.4183         estimate D2E/DX2                !
 ! D20   D(6,5,10,14)          176.9379         estimate D2E/DX2                !
 ! D21   D(11,5,10,14)         -62.5655         estimate D2E/DX2                !
 ! D22   D(3,5,11,15)          -58.4385         estimate D2E/DX2                !
 ! D23   D(6,5,11,15)         -176.9217         estimate D2E/DX2                !
 ! D24   D(10,5,11,15)          62.5655         estimate D2E/DX2                !
 --------------------------------------------------------------------------------
 Trust Radius=3.00D-01 FncErr=1.00D-07 GrdErr=1.00D-06
 Number of steps in this run=     91 maximum allowed number of steps=    100.
 GradGradGradGradGradGradGradGradGradGradGradGradGradGradGradGradGradGrad

 Leave Link  103 at Sun Feb  3 01:45:22 2019, MaxMem=    33554432 cpu:         0.1
 (Enter /sw/chem/g09/l202.exe)
                          Input orientation:                          
 ---------------------------------------------------------------------
 Center     Atomic      Atomic             Coordinates (Angstroms)
 Number     Number       Type             X           Y           Z
 ---------------------------------------------------------------------
      1         14           0       -1.211998   -0.972149   -1.929814
      2          8           0       -0.140146   -0.028675   -1.167168
      3          8           0       -0.799353   -2.555718   -1.856460
      4          1           0        0.621531   -0.462812   -0.771370
      5         14           0        0.416301   -3.456799   -1.302602
      6          8           0        1.453346   -2.433414   -0.552785
      7          1           0        2.252815   -2.765091   -0.144842
      8          8           0       -2.715603   -0.799773   -1.277616
      9          8           0       -1.353063   -0.549497   -3.516436
     10          8           0       -0.124061   -4.615912   -0.263194
     11          8           0        1.167094   -4.264251   -2.527443
     12          1           0       -3.353167   -1.352179   -1.727389
     13          1           0       -1.990626   -1.101903   -3.966209
     14          1           0       -0.761806   -5.168360   -0.712659
     15          1           0        0.529349   -4.816699   -2.976909
 ---------------------------------------------------------------------
                    Distance matrix (angstroms):
                    1          2          3          4          5
     1  Si   0.000000
     2  O    1.618839   0.000000
     3  O    1.638093   2.701041   0.000000
     4  H    2.227834   0.961916   2.752560   0.000000
     5  Si   3.036155   3.475631   1.611372   3.047669   0.000000
     6  O    3.336999   2.949483   2.605605   2.150109   1.638598
     7  H    4.290186   3.776160   3.505596   2.890348   2.278520
     8  O    1.648000   2.690682   2.662784   3.392093   4.107218
     9  O    1.648000   2.694714   2.662149   3.382591   4.060063
    10  O    4.151896   4.675486   2.690523   4.249987   1.648000
    11  O    4.105505   4.636737   2.690021   4.222839   1.648000
    12  H    2.184034   3.519803   2.826151   4.183679   4.338059
    13  H    2.184034   3.522886   2.825553   4.175979   4.293441
    14  H    4.392303   5.197057   2.852295   4.905023   2.159956
    15  H    4.348478   5.162224   2.851822   4.881519   2.159956
                    6          7          8          9         10
     6  O    0.000000
     7  H    0.956858   0.000000
     8  O    4.535890   5.461761   0.000000
     9  O    4.495365   5.410994   2.632768   0.000000
    10  O    2.708390   3.014811   4.723141   5.350679   0.000000
    11  O    2.707984   3.017128   5.351636   4.596596   2.630128
    12  H    5.064714   5.993981   0.956000   2.800965   4.819019
    13  H    5.028452   5.947759   2.800965   0.956000   5.435498
    14  H    3.523122   3.896929   4.818823   5.435498   0.956000
    15  H    3.522810   3.898722   5.436267   4.695058   2.798483
                   11         12         13         14         15
    11  O    0.000000
    12  H    5.436267   0.000000
    13  H    4.694857   2.632768   0.000000
    14  H    2.798483   4.723141   5.350855   0.000000
    15  H    0.956000   5.351460   4.596596   2.630128   0.000000
 Symmetry turned off by external request.
 Stoichiometry    H6O7Si2
 Framework group  C1[X(H6O7Si2)]
 Deg. of freedom    39
 Full point group                 C1      NOp   1
 Rotational constants (GHZ):      0.0000003      0.0000001      0.0000001
 Leave Link  202 at Sun Feb  3 01:45:22 2019, MaxMem=    33554432 cpu:         0.1
 (Enter /sw/chem/g09/l301.exe)
 Standard basis: TZVP (5D, 7F)
 Ernie: Thresh=  0.10000D-02 Tol=  0.10000D-05 Strict=F.
   213 basis functions,   387 primitive gaussians,   222 cartesian basis functions
    45 alpha electrons       45 beta electrons
       nuclear repulsion energy       737.7755226499 Hartrees.
 IExCor= 4639 DFT=T Ex+Corr=wB97XD ExCW=0 ScaHFX=  1.000000
 ScaDFX=  1.000000  1.000000  1.000000  1.000000 ScalE2=  1.000000  1.000000
 IRadAn=      0 IRanWt=     -1 IRanGd=            0 ICorTp=0 IEmpDi=121
  HFx wShort=  0.000000 wLong=  0.200000 cFull=  0.222036 cShort=  0.000000 cLong=  0.777964
  DFx wShort=  0.000000 wLong=  0.200000 cFull=  0.000000 cShort=  0.000000 cLong=  1.000000
 NAtoms=   15 NActive=   15 NUniq=   15 SFac= 1.00D+00 NAtFMM=   60 NAOKFM=F Big=F
 Integral buffers will be    131072 words long.
 Raffenetti 2 integral format.
 Two-electron integral symmetry is turned off.
 R6Disp:  Grimme-D2 Dispersion energy=       -0.0063800022 Hartrees.
 Nuclear repulsion after empirical dispersion term =      737.7691426477 Hartrees.
 Leave Link  301 at Sun Feb  3 01:45:22 2019, MaxMem=    33554432 cpu:         0.6
 (Enter /sw/chem/g09/l302.exe)
 NPDir=0 NMtPBC=     1 NCelOv=     1 NCel=       1 NClECP=     1 NCelD=      1
         NCelK=      1 NCelE2=     1 NClLst=     1 CellRange=     0.0.
 One-electron integrals computed using PRISM.
 PrsmSu:  requested number of processors reduced to:   9 ShMem   1 Linda.
 NBasis=   213 RedAO= T EigKep=  1.67D-03  NBF=   213
 NBsUse=   213 1.00D-06 EigRej= -1.00D+00 NBFU=   213
 Precomputing XC quadrature grid using
 IXCGrd= 4 IRadAn=           0 IRanWt=          -1 IRanGd=           0 AccXCQ= 0.00D+00.
 Generated NRdTot=       0 NPtTot=           0 NUsed=           0 NTot=          32
 NSgBfM=   218   218   218   218   218 MxSgAt=    15 MxSgA2=    15.
 Leave Link  302 at Sun Feb  3 01:45:22 2019, MaxMem=    33554432 cpu:         2.7
 (Enter /sw/chem/g09/l303.exe)
 DipDrv:  MaxL=1.
 Leave Link  303 at Sun Feb  3 01:45:23 2019, MaxMem=    33554432 cpu:         0.4
 (Enter /sw/chem/g09/l401.exe)
 ExpMin= 7.01D-02 ExpMax= 4.48D+04 ExpMxC= 1.53D+03 IAcc=2 IRadAn=         4 AccDes= 0.00D+00
 Harris functional with IExCor= 4639 and IRadAn=       4 diagonalized for initial guess.
 HarFok:  IExCor= 4639 AccDes= 0.00D+00 IRadAn=         4 IDoV= 1 UseB2=F ITyADJ=14
 ICtDFT=  3500011 ScaDFX=  1.000000  1.000000  1.000000  1.000000
 FoFCou: FMM=F IPFlag=           0 FMFlag=      100000 FMFlg1=           0
         NFxFlg=           0 DoJE=T BraDBF=F KetDBF=T FulRan=T
         wScrn=  0.000000 ICntrl=     500 IOpCl=  0 I1Cent=   200000004 NGrid=           0
         NMat0=    1 NMatS0=      1 NMatT0=    0 NMatD0=    1 NMtDS0=    0 NMtDT0=    0
 Symmetry not used in FoFCou.
 Harris En= -1079.59399227786    
 JPrj=0 DoOrth=F DoCkMO=F.
 Leave Link  401 at Sun Feb  3 01:45:23 2019, MaxMem=    33554432 cpu:         5.4
 (Enter /sw/chem/g09/l502.exe)
 Closed shell SCF:
 Using DIIS extrapolation, IDIIS=  1040.
 Two-electron integral symmetry not used.
 IVT=      170428 IEndB=      170428 NGot=    33554432 MDV=    33450151
 LenX=    33450151 LenY=    33400426
 Requested convergence on RMS density matrix=1.00D-08 within 128 cycles.
 Requested convergence on MAX density matrix=1.00D-06.
 Requested convergence on             energy=1.00D-06.
 No special actions if energy rises.
 Fock matrices will be formed incrementally for  20 cycles.
 Integral accuracy reduced to 1.0D-05 until final iterations.

 Cycle   1  Pass 0  IDiag  1:
 FoFJK:  IHMeth= 1 ICntrl=       0 DoSepK=T KAlg= 0 I1Cent=   0 FoldK=F
 IRaf=         1 NMat=   1 IRICut=       1 DoRegI=T DoRafI=F ISym2E= 0.
 FoFCou: FMM=F IPFlag=           0 FMFlag=      100000 FMFlg1=           0
         NFxFlg=           0 DoJE=T BraDBF=F KetDBF=F FulRan=T
         wScrn=  0.000000 ICntrl=     500 IOpCl=  0 I1Cent=           0 NGrid=           0
         NMat0=    1 NMatS0=      1 NMatT0=    0 NMatD0=    1 NMtDS0=    0 NMtDT0=    0
 Symmetry not used in FoFCou.
 E= -1109.39863785513    
 DIIS: error= 7.04D-02 at cycle   1 NSaved=   1.
 NSaved= 1 IEnMin= 1 EnMin= -1109.39863785513     IErMin= 1 ErrMin= 7.04D-02
 ErrMax= 7.04D-02  0.00D+00 EMaxC= 1.00D-01 BMatC= 1.45D+00 BMatP= 1.45D+00
 IDIUse=3 WtCom= 2.96D-01 WtEn= 7.04D-01
 Coeff-Com:  0.100D+01
 Coeff-En:   0.100D+01
 Coeff:      0.100D+01
 Gap=     0.465 Goal=   None    Shift=    0.000
 GapD=    0.465 DampG=2.000 DampE=0.500 DampFc=1.0000 IDamp=-1.
 RMSDP=2.53D-03 MaxDP=1.00D-01              OVMax= 4.13D-02

 Cycle   2  Pass 0  IDiag  1:
 RMSU=  2.52D-03    CP:  1.01D+00
 E= -1109.57334967659     Delta-E=       -0.174711821459 Rises=F Damp=F
 DIIS: error= 9.94D-03 at cycle   2 NSaved=   2.
 NSaved= 2 IEnMin= 2 EnMin= -1109.57334967659     IErMin= 2 ErrMin= 9.94D-03
 ErrMax= 9.94D-03  0.00D+00 EMaxC= 1.00D-01 BMatC= 4.30D-02 BMatP= 1.45D+00
 IDIUse=3 WtCom= 9.01D-01 WtEn= 9.94D-02
 Coeff-Com:  0.119D+00 0.881D+00
 Coeff-En:   0.000D+00 0.100D+01
 Coeff:      0.107D+00 0.893D+00
 Gap=     0.449 Goal=   None    Shift=    0.000
 RMSDP=7.04D-04 MaxDP=2.78D-02 DE=-1.75D-01 OVMax= 2.08D-02

 Cycle   3  Pass 0  IDiag  1:
 RMSU=  4.56D-04    CP:  1.01D+00  7.90D-01
 E= -1109.58554513255     Delta-E=       -0.012195455958 Rises=F Damp=F
 DIIS: error= 3.71D-03 at cycle   3 NSaved=   3.
 NSaved= 3 IEnMin= 3 EnMin= -1109.58554513255     IErMin= 3 ErrMin= 3.71D-03
 ErrMax= 3.71D-03  0.00D+00 EMaxC= 1.00D-01 BMatC= 5.24D-03 BMatP= 4.30D-02
 IDIUse=3 WtCom= 9.63D-01 WtEn= 3.71D-02
 Coeff-Com:  0.241D-01 0.292D+00 0.684D+00
 Coeff-En:   0.000D+00 0.000D+00 0.100D+01
 Coeff:      0.232D-01 0.281D+00 0.696D+00
 Gap=     0.452 Goal=   None    Shift=    0.000
 RMSDP=2.31D-04 MaxDP=8.69D-03 DE=-1.22D-02 OVMax= 1.53D-02

 Cycle   4  Pass 0  IDiag  1:
 RMSU=  1.84D-04    CP:  1.01D+00  8.35D-01  8.31D-01
 E= -1109.58820508885     Delta-E=       -0.002659956300 Rises=F Damp=F
 DIIS: error= 1.61D-03 at cycle   4 NSaved=   4.
 NSaved= 4 IEnMin= 4 EnMin= -1109.58820508885     IErMin= 4 ErrMin= 1.61D-03
 ErrMax= 1.61D-03  0.00D+00 EMaxC= 1.00D-01 BMatC= 1.02D-03 BMatP= 5.24D-03
 IDIUse=3 WtCom= 9.84D-01 WtEn= 1.61D-02
 Coeff-Com:  0.344D-02 0.764D-01 0.348D+00 0.572D+00
 Coeff-En:   0.000D+00 0.000D+00 0.876D-01 0.912D+00
 Coeff:      0.338D-02 0.751D-01 0.344D+00 0.577D+00
 Gap=     0.450 Goal=   None    Shift=    0.000
 RMSDP=6.88D-05 MaxDP=2.88D-03 DE=-2.66D-03 OVMax= 4.44D-03

 Cycle   5  Pass 0  IDiag  1:
 RMSU=  3.69D-05    CP:  1.01D+00  8.40D-01  9.15D-01  7.73D-01
 E= -1109.58882074902     Delta-E=       -0.000615660166 Rises=F Damp=F
 DIIS: error= 1.71D-04 at cycle   5 NSaved=   5.
 NSaved= 5 IEnMin= 5 EnMin= -1109.58882074902     IErMin= 5 ErrMin= 1.71D-04
 ErrMax= 1.71D-04  0.00D+00 EMaxC= 1.00D-01 BMatC= 1.06D-05 BMatP= 1.02D-03
 IDIUse=3 WtCom= 9.98D-01 WtEn= 1.71D-03
 Coeff-Com:  0.184D-03 0.851D-02 0.659D-01 0.136D+00 0.789D+00
 Coeff-En:   0.000D+00 0.000D+00 0.000D+00 0.000D+00 0.100D+01
 Coeff:      0.184D-03 0.850D-02 0.658D-01 0.136D+00 0.789D+00
 Gap=     0.449 Goal=   None    Shift=    0.000
 RMSDP=1.79D-05 MaxDP=2.86D-04 DE=-6.16D-04 OVMax= 6.29D-04

 Cycle   6  Pass 0  IDiag  1:
 RMSU=  1.18D-05    CP:  1.01D+00  8.41D-01  9.39D-01  8.10D-01  9.20D-01
 E= -1109.58882941941     Delta-E=       -0.000008670394 Rises=F Damp=F
 DIIS: error= 8.57D-05 at cycle   6 NSaved=   6.
 NSaved= 6 IEnMin= 6 EnMin= -1109.58882941941     IErMin= 6 ErrMin= 8.57D-05
 ErrMax= 8.57D-05  0.00D+00 EMaxC= 1.00D-01 BMatC= 2.80D-06 BMatP= 1.06D-05
 IDIUse=1 WtCom= 1.00D+00 WtEn= 0.00D+00
 Coeff-Com: -0.463D-03-0.666D-02-0.173D-01-0.217D-01 0.328D+00 0.718D+00
 Coeff:     -0.463D-03-0.666D-02-0.173D-01-0.217D-01 0.328D+00 0.718D+00
 Gap=     0.449 Goal=   None    Shift=    0.000
 RMSDP=8.68D-06 MaxDP=1.26D-04 DE=-8.67D-06 OVMax= 3.99D-04

 Initial convergence to 1.0D-05 achieved.  Increase integral accuracy.
 Cycle   7  Pass 1  IDiag  1:
 E= -1109.58861188801     Delta-E=        0.000217531402 Rises=F Damp=F
 DIIS: error= 5.58D-05 at cycle   1 NSaved=   1.
 NSaved= 1 IEnMin= 1 EnMin= -1109.58861188801     IErMin= 1 ErrMin= 5.58D-05
 ErrMax= 5.58D-05  0.00D+00 EMaxC= 1.00D-01 BMatC= 2.04D-06 BMatP= 2.04D-06
 IDIUse=1 WtCom= 1.00D+00 WtEn= 0.00D+00
 Coeff-Com:  0.100D+01
 Coeff:      0.100D+01
 Gap=     0.449 Goal=   None    Shift=    0.000
 RMSDP=8.68D-06 MaxDP=1.26D-04 DE= 2.18D-04 OVMax= 1.87D-04

 Cycle   8  Pass 1  IDiag  1:
 RMSU=  8.64D-06    CP:  1.00D+00
 E= -1109.58861333981     Delta-E=       -0.000001451805 Rises=F Damp=F
 DIIS: error= 1.86D-05 at cycle   2 NSaved=   2.
 NSaved= 2 IEnMin= 2 EnMin= -1109.58861333981     IErMin= 2 ErrMin= 1.86D-05
 ErrMax= 1.86D-05  0.00D+00 EMaxC= 1.00D-01 BMatC= 1.84D-07 BMatP= 2.04D-06
 IDIUse=1 WtCom= 1.00D+00 WtEn= 0.00D+00
 Coeff-Com:  0.914D-01 0.909D+00
 Coeff:      0.914D-01 0.909D+00
 Gap=     0.449 Goal=   None    Shift=    0.000
 RMSDP=2.17D-06 MaxDP=9.92D-05 DE=-1.45D-06 OVMax= 1.03D-04

 Cycle   9  Pass 1  IDiag  1:
 RMSU=  2.15D-06    CP:  1.00D+00  1.03D+00
 E= -1109.58861338743     Delta-E=       -0.000000047615 Rises=F Damp=F
 DIIS: error= 1.85D-05 at cycle   3 NSaved=   3.
 NSaved= 3 IEnMin= 3 EnMin= -1109.58861338743     IErMin= 3 ErrMin= 1.85D-05
 ErrMax= 1.85D-05  0.00D+00 EMaxC= 1.00D-01 BMatC= 1.50D-07 BMatP= 1.84D-07
 IDIUse=1 WtCom= 1.00D+00 WtEn= 0.00D+00
 Coeff-Com: -0.352D-01 0.479D+00 0.557D+00
 Coeff:     -0.352D-01 0.479D+00 0.557D+00
 Gap=     0.449 Goal=   None    Shift=    0.000
 RMSDP=9.59D-07 MaxDP=3.23D-05 DE=-4.76D-08 OVMax= 5.85D-05

 Cycle  10  Pass 1  IDiag  1:
 RMSU=  7.01D-07    CP:  1.00D+00  1.08D+00  7.55D-01
 E= -1109.58861348365     Delta-E=       -0.000000096227 Rises=F Damp=F
 DIIS: error= 2.91D-06 at cycle   4 NSaved=   4.
 NSaved= 4 IEnMin= 4 EnMin= -1109.58861348365     IErMin= 4 ErrMin= 2.91D-06
 ErrMax= 2.91D-06  0.00D+00 EMaxC= 1.00D-01 BMatC= 2.82D-09 BMatP= 1.50D-07
 IDIUse=1 WtCom= 1.00D+00 WtEn= 0.00D+00
 Coeff-Com: -0.168D-01 0.932D-01 0.170D+00 0.753D+00
 Coeff:     -0.168D-01 0.932D-01 0.170D+00 0.753D+00
 Gap=     0.449 Goal=   None    Shift=    0.000
 RMSDP=2.39D-07 MaxDP=1.25D-05 DE=-9.62D-08 OVMax= 8.24D-06

 Cycle  11  Pass 1  IDiag  1:
 RMSU=  2.09D-07    CP:  1.00D+00  1.09D+00  7.84D-01  1.02D+00
 E= -1109.58861348601     Delta-E=       -0.000000002361 Rises=F Damp=F
 DIIS: error= 6.81D-07 at cycle   5 NSaved=   5.
 NSaved= 5 IEnMin= 5 EnMin= -1109.58861348601     IErMin= 5 ErrMin= 6.81D-07
 ErrMax= 6.81D-07  0.00D+00 EMaxC= 1.00D-01 BMatC= 1.91D-10 BMatP= 2.82D-09
 IDIUse=1 WtCom= 1.00D+00 WtEn= 0.00D+00
 Coeff-Com: -0.427D-03-0.218D-01-0.135D-01 0.148D+00 0.887D+00
 Coeff:     -0.427D-03-0.218D-01-0.135D-01 0.148D+00 0.887D+00
 Gap=     0.449 Goal=   None    Shift=    0.000
 RMSDP=1.06D-07 MaxDP=2.86D-06 DE=-2.36D-09 OVMax= 3.81D-06

 Cycle  12  Pass 1  IDiag  1:
 RMSU=  5.47D-08    CP:  1.00D+00  1.09D+00  8.06D-01  1.12D+00  1.11D+00
 E= -1109.58861348624     Delta-E=       -0.000000000226 Rises=F Damp=F
 DIIS: error= 3.96D-07 at cycle   6 NSaved=   6.
 NSaved= 6 IEnMin= 6 EnMin= -1109.58861348624     IErMin= 6 ErrMin= 3.96D-07
 ErrMax= 3.96D-07  0.00D+00 EMaxC= 1.00D-01 BMatC= 6.08D-11 BMatP= 1.91D-10
 IDIUse=1 WtCom= 1.00D+00 WtEn= 0.00D+00
 Coeff-Com:  0.148D-02-0.192D-01-0.242D-01-0.168D-01 0.411D+00 0.648D+00
 Coeff:      0.148D-02-0.192D-01-0.242D-01-0.168D-01 0.411D+00 0.648D+00
 Gap=     0.449 Goal=   None    Shift=    0.000
 RMSDP=3.21D-08 MaxDP=6.88D-07 DE=-2.26D-10 OVMax= 1.31D-06

 Cycle  13  Pass 1  IDiag  1:
 RMSU=  1.89D-08    CP:  1.00D+00  1.09D+00  8.12D-01  1.15D+00  1.18D+00
                    CP:  9.41D-01
 E= -1109.58861348626     Delta-E=       -0.000000000022 Rises=F Damp=F
 DIIS: error= 5.50D-08 at cycle   7 NSaved=   7.
 NSaved= 7 IEnMin= 7 EnMin= -1109.58861348626     IErMin= 7 ErrMin= 5.50D-08
 ErrMax= 5.50D-08  0.00D+00 EMaxC= 1.00D-01 BMatC= 2.01D-12 BMatP= 6.08D-11
 IDIUse=1 WtCom= 1.00D+00 WtEn= 0.00D+00
 Coeff-Com:  0.333D-03-0.195D-02-0.409D-02-0.200D-01 0.302D-02 0.146D+00
 Coeff-Com:  0.877D+00
 Coeff:      0.333D-03-0.195D-02-0.409D-02-0.200D-01 0.302D-02 0.146D+00
 Coeff:      0.877D+00
 Gap=     0.449 Goal=   None    Shift=    0.000
 RMSDP=1.19D-08 MaxDP=3.15D-07 DE=-2.18D-11 OVMax= 4.54D-07

 Cycle  14  Pass 1  IDiag  1:
 RMSU=  5.25D-09    CP:  1.00D+00  1.09D+00  8.12D-01  1.15D+00  1.21D+00
                    CP:  1.03D+00  1.07D+00
 E= -1109.58861348626     Delta-E=       -0.000000000001 Rises=F Damp=F
 DIIS: error= 1.74D-08 at cycle   8 NSaved=   8.
 NSaved= 8 IEnMin= 8 EnMin= -1109.58861348626     IErMin= 8 ErrMin= 1.74D-08
 ErrMax= 1.74D-08  0.00D+00 EMaxC= 1.00D-01 BMatC= 1.30D-13 BMatP= 2.01D-12
 IDIUse=1 WtCom= 1.00D+00 WtEn= 0.00D+00
 Coeff-Com: -0.510D-05 0.652D-03 0.518D-03-0.364D-02-0.234D-01-0.500D-02
 Coeff-Com:  0.198D+00 0.833D+00
 Coeff:     -0.510D-05 0.652D-03 0.518D-03-0.364D-02-0.234D-01-0.500D-02
 Coeff:      0.198D+00 0.833D+00
 Gap=     0.449 Goal=   None    Shift=    0.000
 RMSDP=2.70D-09 MaxDP=8.41D-08 DE=-1.36D-12 OVMax= 1.06D-07

 SCF Done:  E(RwB97XD) =  -1109.58861349     A.U. after   14 cycles
            NFock= 14  Conv=0.27D-08     -V/T= 2.0034
 KE= 1.105789640070D+03 PE=-4.109169738626D+03 EE= 1.156022342422D+03
 Leave Link  502 at Sun Feb  3 01:45:41 2019, MaxMem=    33554432 cpu:       220.8
 (Enter /sw/chem/g09/l601.exe)
 Copying SCF densities to generalized density rwf, IOpCl= 0 IROHF=0.

 **********************************************************************

            Population analysis using the SCF density.

 **********************************************************************

 Alpha  occ. eigenvalues --  -66.38281 -66.36843 -19.28288 -19.26895 -19.26680
 Alpha  occ. eigenvalues --  -19.26664 -19.25142 -19.25023 -19.25008  -5.48043
 Alpha  occ. eigenvalues --   -5.46565  -3.82668  -3.82564  -3.82538  -3.81232
 Alpha  occ. eigenvalues --   -3.81068  -3.81039  -1.16554  -1.14073  -1.12908
 Alpha  occ. eigenvalues --   -1.11597  -1.10586  -1.10284  -1.09919  -0.71204
 Alpha  occ. eigenvalues --   -0.67781  -0.63648  -0.62626  -0.62136  -0.60740
 Alpha  occ. eigenvalues --   -0.58409  -0.52481  -0.51017  -0.50752  -0.49687
 Alpha  occ. eigenvalues --   -0.48252  -0.45992  -0.45928  -0.45504  -0.44019
 Alpha  occ. eigenvalues --   -0.43045  -0.43024  -0.42442  -0.40782  -0.39197
 Alpha virt. eigenvalues --    0.05751   0.08676   0.10573   0.13547   0.15348
 Alpha virt. eigenvalues --    0.15717   0.17811   0.19818   0.20886   0.21794
 Alpha virt. eigenvalues --    0.23597   0.23836   0.25506   0.28798   0.30845
 Alpha virt. eigenvalues --    0.32967   0.34370   0.34593   0.35460   0.36440
 Alpha virt. eigenvalues --    0.38467   0.40751   0.43333   0.43368   0.44908
 Alpha virt. eigenvalues --    0.46781   0.48004   0.49729   0.51565   0.53226
 Alpha virt. eigenvalues --    0.54618   0.55851   0.57463   0.57541   0.58846
 Alpha virt. eigenvalues --    0.60442   0.62175   0.62347   0.63271   0.63966
 Alpha virt. eigenvalues --    0.64454   0.66373   0.67515   0.68177   0.69488
 Alpha virt. eigenvalues --    0.70869   0.73214   0.74178   0.79367   0.81366
 Alpha virt. eigenvalues --    0.81972   0.83012   0.84554   0.85978   0.87999
 Alpha virt. eigenvalues --    0.88596   0.91053   0.92231   0.93020   0.95690
 Alpha virt. eigenvalues --    0.98929   0.99637   1.00577   1.01959   1.03293
 Alpha virt. eigenvalues --    1.11479   1.40100   1.45554   1.45722   1.46826
 Alpha virt. eigenvalues --    1.49207   1.49811   1.51481   1.51713   1.52947
 Alpha virt. eigenvalues --    1.54072   1.57769   1.59783   1.60077   1.61589
 Alpha virt. eigenvalues --    1.73184   1.79248   1.84229   1.90479   2.08250
 Alpha virt. eigenvalues --    2.09123   2.09808   2.11115   2.12928   2.18148
 Alpha virt. eigenvalues --    2.25578   2.27867   2.32388   2.34415   2.36127
 Alpha virt. eigenvalues --    2.45056   2.54631   2.56074   2.63245   2.64855
 Alpha virt. eigenvalues --    2.68937   2.69736   2.70938   2.71654   2.72557
 Alpha virt. eigenvalues --    2.73846   2.75429   2.75880   2.77615   2.77942
 Alpha virt. eigenvalues --    2.79253   2.79639   2.81543   2.83226   2.83646
 Alpha virt. eigenvalues --    2.84629   2.85088   2.88475   2.88709   2.92687
 Alpha virt. eigenvalues --    2.93568   2.93692   2.98219   2.99416   2.99868
 Alpha virt. eigenvalues --    3.01975   3.02011   3.02273   3.03654   3.03810
 Alpha virt. eigenvalues --    3.04782   3.05560   3.06053   3.06253   3.08188
 Alpha virt. eigenvalues --    3.10039   3.10524   3.12179   3.13937   3.15060
 Alpha virt. eigenvalues --    3.16019   3.18154   3.18871   3.19866   3.23701
 Alpha virt. eigenvalues --    3.24615   3.34102   3.41161   3.42839   3.44079
 Alpha virt. eigenvalues --    3.46017   3.50959   3.52051   4.31965   4.32834
 Alpha virt. eigenvalues --    4.33892   4.36202   4.37580   4.37687  10.24008
 Alpha virt. eigenvalues --   10.24760  43.34275  43.35772  43.38802  43.40801
 Alpha virt. eigenvalues --   43.42830  43.49855  43.57838
          Condensed to atoms (all electrons):
               1          2          3          4          5          6
     1  Si  11.867495   0.452551   0.337010  -0.041441  -0.046540   0.000895
     2  O    0.452551   7.764541  -0.031204   0.338258  -0.001467  -0.004761
     3  O    0.337010  -0.031204   7.857212  -0.000528   0.374074  -0.033301
     4  H   -0.041441   0.338258  -0.000528   0.363512  -0.001461   0.007737
     5  Si  -0.046540  -0.001467   0.374074  -0.001461  11.856150   0.411903
     6  O    0.000895  -0.004761  -0.033301   0.007737   0.411903   7.886651
     7  H    0.000034   0.000398   0.000617   0.000591  -0.023654   0.334464
     8  O    0.384858  -0.026968  -0.029061   0.000116   0.001146  -0.000049
     9  O    0.383009  -0.026870  -0.029506   0.000132   0.001630  -0.000057
    10  O   -0.000299  -0.000067  -0.027678   0.000039   0.385592  -0.028014
    11  O   -0.000027  -0.000073  -0.027948   0.000047   0.384712  -0.028181
    12  H   -0.020408   0.001123  -0.000785  -0.000071  -0.000186   0.000008
    13  H   -0.020395   0.001109  -0.000612  -0.000071  -0.000166   0.000008
    14  H   -0.000091   0.000003  -0.000720   0.000001  -0.018921   0.001212
    15  H   -0.000051   0.000002  -0.000588   0.000001  -0.019066   0.001214
               7          8          9         10         11         12
     1  Si   0.000034   0.384858   0.383009  -0.000299  -0.000027  -0.020408
     2  O    0.000398  -0.026968  -0.026870  -0.000067  -0.000073   0.001123
     3  O    0.000617  -0.029061  -0.029506  -0.027678  -0.027948  -0.000785
     4  H    0.000591   0.000116   0.000132   0.000039   0.000047  -0.000071
     5  Si  -0.023654   0.001146   0.001630   0.385592   0.384712  -0.000186
     6  O    0.334464  -0.000049  -0.000057  -0.028014  -0.028181   0.000008
     7  H    0.360619   0.000005   0.000005  -0.001591  -0.001590   0.000001
     8  O    0.000005   7.843307  -0.037078  -0.000002  -0.000008   0.314946
     9  O    0.000005  -0.037078   7.845541  -0.000008  -0.000007  -0.000223
    10  O   -0.001591  -0.000002  -0.000008   7.835684  -0.035363  -0.000004
    11  O   -0.001590  -0.000008  -0.000007  -0.035363   7.836696   0.000005
    12  H    0.000001   0.314946  -0.000223  -0.000004   0.000005   0.425264
    13  H    0.000001  -0.000138   0.315081   0.000005  -0.000011  -0.000740
    14  H   -0.000087  -0.000023   0.000003   0.316700  -0.000134  -0.000001
    15  H   -0.000089   0.000003  -0.000034  -0.000063   0.316837   0.000002
              13         14         15
     1  Si  -0.020395  -0.000091  -0.000051
     2  O    0.001109   0.000003   0.000002
     3  O   -0.000612  -0.000720  -0.000588
     4  H   -0.000071   0.000001   0.000001
     5  Si  -0.000166  -0.018921  -0.019066
     6  O    0.000008   0.001212   0.001214
     7  H    0.000001  -0.000087  -0.000089
     8  O   -0.000138  -0.000023   0.000003
     9  O    0.315081   0.000003  -0.000034
    10  O    0.000005   0.316700  -0.000063
    11  O   -0.000011  -0.000134   0.316837
    12  H   -0.000740  -0.000001   0.000002
    13  H    0.425128   0.000002   0.000000
    14  H    0.000002   0.417098  -0.000723
    15  H    0.000000  -0.000723   0.417339
 Mulliken charges:
               1
     1  Si   0.703399
     2  O   -0.466574
     3  O   -0.386983
     4  H    0.333140
     5  Si   0.696255
     6  O   -0.549728
     7  H    0.330277
     8  O   -0.451054
     9  O   -0.451618
    10  O   -0.444932
    11  O   -0.444955
    12  H    0.281071
    13  H    0.280800
    14  H    0.285682
    15  H    0.285219
 Sum of Mulliken charges =   0.00000
 Mulliken charges with hydrogens summed into heavy atoms:
               1
     1  Si   0.703399
     2  O   -0.133433
     3  O   -0.386983
     5  Si   0.696255
     6  O   -0.219451
     8  O   -0.169983
     9  O   -0.170818
    10  O   -0.159250
    11  O   -0.159736
 Electronic spatial extent (au):  <R**2>=           4139.0731
 Charge=              0.0000 electrons
 Dipole moment (field-independent basis, Debye):
    X=             -0.8987    Y=             -4.7965    Z=             -1.1913  Tot=              5.0233
 Quadrupole moment (field-independent basis, Debye-Ang):
   XX=            -54.5509   YY=            -47.8590   ZZ=            -61.5501
   XY=             10.8075   XZ=             13.1144   YZ=             15.0333
 Traceless Quadrupole moment (field-independent basis, Debye-Ang):
   XX=              0.1024   YY=              6.7943   ZZ=             -6.8967
   XY=             10.8075   XZ=             13.1144   YZ=             15.0333
 Octapole moment (field-independent basis, Debye-Ang**2):
  XXX=             58.6912  YYY=            336.2500  ZZZ=            297.8135  XYY=            -20.7886
  XXY=            112.3555  XXZ=             82.3737  XZZ=            -16.4808  YZZ=            104.2358
  YYZ=             42.3587  XYZ=            -42.9220
 Hexadecapole moment (field-independent basis, Debye-Ang**3):
 XXXX=           -542.0202 YYYY=          -2338.7446 ZZZZ=          -1302.0564 XXXY=            105.2926
 XXXZ=            -64.5399 YYYX=            287.1239 YYYZ=           -275.2454 ZZZX=            -43.7777
 ZZZY=           -465.5506 XXYY=           -537.1263 XXZZ=           -265.4251 YYZZ=           -566.2853
 XXYZ=           -176.1683 YYXZ=             69.6914 ZZXY=            134.5716
 N-N= 7.377691426477D+02 E-N=-4.109169741964D+03  KE= 1.105789640070D+03
 No NMR shielding tensors so no spin-rotation constants.
 Leave Link  601 at Sun Feb  3 01:45:42 2019, MaxMem=    33554432 cpu:         1.9
 (Enter /sw/chem/g09/l701.exe)
 Compute integral first derivatives.
 ... and contract with generalized density number  0.
 R6Disp: Adding Grimme-D2 dispersion energy 1st derivatives to the gradient.
 PrsmSu:  requested number of processors reduced to:   9 ShMem   1 Linda.
 Leave Link  701 at Sun Feb  3 01:45:42 2019, MaxMem=    33554432 cpu:         2.2
 (Enter /sw/chem/g09/l702.exe)
 L702 exits ... SP integral derivatives will be done elsewhere.
 Leave Link  702 at Sun Feb  3 01:45:42 2019, MaxMem=    33554432 cpu:         0.2
 (Enter /sw/chem/g09/l703.exe)
 Compute integral first derivatives, UseDBF=F ICtDFT=           0.
 Integral derivatives from FoFJK, PRISM(SPDF).
 Calling FoFJK, ICntrl=      2127 FMM=F ISym2X=0 I1Cent= 0 IOpClX= 0 NMat=1 NMatS=1 NMatT=0.
 FoFJK:  IHMeth= 1 ICntrl=    2127 DoSepK=T KAlg= 0 I1Cent=   0 FoldK=F
 IRaf=         1 NMat=   1 IRICut=       1 DoRegI=T DoRafI=F ISym2E= 0.
 FoFCou: FMM=F IPFlag=           0 FMFlag=      100000 FMFlg1=         800
         NFxFlg=           0 DoJE=F BraDBF=F KetDBF=F FulRan=T
         wScrn=  0.000000 ICntrl=    2527 IOpCl=  0 I1Cent=           0 NGrid=           0
         NMat0=    1 NMatS0=      1 NMatT0=    0 NMatD0=    1 NMtDS0=    0 NMtDT0=    0
 Symmetry not used in FoFCou.
 Leave Link  703 at Sun Feb  3 01:45:46 2019, MaxMem=    33554432 cpu:        49.7
 (Enter /sw/chem/g09/l716.exe)
 Dipole        =-3.53562519D-01-1.88710487D+00-4.68684339D-01
 -------------------------------------------------------------------
 Center     Atomic                   Forces (Hartrees/Bohr)
 Number     Number              X              Y              Z
 -------------------------------------------------------------------
      1       14          -0.009969375    0.013168889   -0.004161876
      2        8           0.003222785    0.002962981    0.002201976
      3        8          -0.005321195   -0.004583702   -0.002870165
      4        1          -0.001016633   -0.000552546   -0.000731681
      5       14           0.012594629   -0.010369403    0.005785603
      6        8           0.003873363    0.002428686    0.002620352
      7        1          -0.001337965   -0.000348455   -0.000882557
      8        8           0.000034698   -0.002291428    0.006145664
      9        8           0.005508702   -0.001189215   -0.003371814
     10        8          -0.003807089    0.003415282    0.002859764
     11        8           0.000067212    0.004269379   -0.003888102
     12        1          -0.004796403    0.001040616    0.002920446
     13        1           0.000276216    0.001973334   -0.005403232
     14        1          -0.003321630   -0.005967831    0.005771073
     15        1           0.003992683   -0.003956585   -0.006995450
 -------------------------------------------------------------------
 Cartesian Forces:  Max     0.013168889 RMS     0.004907514
 Leave Link  716 at Sun Feb  3 01:45:46 2019, MaxMem=    33554432 cpu:         0.3
 (Enter /sw/chem/g09/l103.exe)

 GradGradGradGradGradGradGradGradGradGradGradGradGradGradGradGradGradGrad
 Berny optimization.
 FormGI is forming the generalized inverse of G from B-inverse, IUseBI=4.
 Internal  Forces:  Max     0.010748425 RMS     0.002853234
 Search for a local minimum.
 Step number   1 out of a maximum of   91
 All quantities printed in internal units (Hartrees-Bohrs-Radians)
 RMS Force = .24933D-02 SwitMx=.10000D-02 MixMth= 1
 Mixed Optimization -- RFO/linear search
 Second derivative matrix not updated -- first step.
 ITU=  0
     Eigenvalues ---    0.03829   0.04090   0.05230   0.09157   0.12801
     Eigenvalues ---    0.12949   0.13791   0.14905   0.15663   0.16000
     Eigenvalues ---    0.16000   0.19827   0.26572   0.29322   0.38032
     Eigenvalues ---    0.39796   0.44424   0.46392   0.47741   0.55063
     Eigenvalues ---    0.561551000.000001000.000001000.000001000.00000
     Eigenvalues --- 1000.000001000.000001000.000001000.000001000.00000
     Eigenvalues --- 1000.000001000.000001000.000001000.000001000.00000
     Eigenvalues --- 1000.000001000.000001000.000001000.000001000.00000
     Eigenvalues --- 1000.000001000.000001000.000001000.000001000.00000
     Eigenvalues --- 1000.000001000.000001000.000001000.000001000.00000
     Eigenvalues --- 1000.000001000.000001000.000001000.000001000.00000
     Eigenvalues --- 1000.000001000.000001000.000001000.000001000.00000
     Eigenvalues --- 1000.000001000.000001000.000001000.000001000.00000
     Eigenvalues --- 1000.000001000.000001000.000001000.000001000.00000
     Eigenvalues --- 1000.000001000.000001000.000001000.000001000.00000
     Eigenvalues --- 1000.000001000.000001000.000001000.000001000.00000
     Eigenvalues --- 1000.00000
 RFO step:  Lambda=-1.46637139D-03 EMin= 3.82858653D-02
 Linear search not attempted -- first point.
 Iteration  1 RMS(Cart)=  0.02603440 RMS(Int)=  0.00019541
 Iteration  2 RMS(Cart)=  0.00028137 RMS(Int)=  0.00010461
 Iteration  3 RMS(Cart)=  0.00000007 RMS(Int)=  0.00010461
 ITry= 1 IFail=0 DXMaxC= 9.83D-02 DCOld= 1.00D+10 DXMaxT= 3.00D-01 DXLimC= 3.00D+00 Rises=F
 Variable       Old X    -DE/DX   Delta X   Delta X   Delta X     New X
                                 (Linear)    (Quad)   (Total)
    X8       -5.13175  -0.00295   0.00000   0.00000   0.00000  -5.13175
    Y8       -1.51135   0.00222   0.00000   0.00000   0.00000  -1.51135
    Z8       -2.41434   0.00264   0.00000   0.00000   0.00000  -2.41434
    X9       -2.55692   0.00056   0.00000   0.00000   0.00000  -2.55692
    Y9       -1.03840   0.00285   0.00000   0.00000   0.00000  -1.03840
    Z9       -6.64510  -0.00338   0.00000   0.00000   0.00000  -6.64510
   X10       -0.23444   0.00019   0.00000   0.00000   0.00000  -0.23444
   Y10       -8.72281  -0.00155   0.00000   0.00000   0.00000  -8.72281
   Z10       -0.49736   0.00359   0.00000   0.00000   0.00000  -0.49736
   X11        2.20549   0.00325   0.00000   0.00000   0.00000   2.20549
   Y11       -8.05827  -0.00078   0.00000   0.00000   0.00000  -8.05827
   Z11       -4.77618  -0.00182   0.00000   0.00000   0.00000  -4.77618
   X12       -6.33657  -0.00334   0.00000   0.00000   0.00000  -6.33657
   Y12       -2.55525  -0.00036   0.00000   0.00000   0.00000  -2.55525
   Z12       -3.26429   0.00446   0.00000   0.00000   0.00000  -3.26429
   X13       -3.76174   0.00232   0.00000   0.00000   0.00000  -3.76174
   Y13       -2.08230   0.00073   0.00000   0.00000   0.00000  -2.08230
   Z13       -7.49505  -0.00501   0.00000   0.00000   0.00000  -7.49505
   X14       -1.43961  -0.00350   0.00000   0.00000   0.00000  -1.43961
   Y14       -9.76678  -0.00247   0.00000   0.00000   0.00000  -9.76678
   Z14       -1.34673   0.00584   0.00000   0.00000   0.00000  -1.34673
   X15        1.00032   0.00346   0.00000   0.00000   0.00000   1.00032
   Y15       -9.10224  -0.00063   0.00000   0.00000   0.00000  -9.10224
   Z15       -5.62554  -0.00633   0.00000   0.00000   0.00000  -5.62554
    R1        3.05916   0.00356   0.00000   0.00743   0.00744   3.06660
    R2        3.09555   0.01025   0.00000   0.02722   0.02744   3.12299
    R3        3.11427  -0.00094   0.00000  -0.00727  -0.00706   3.10721
    R4        3.11427  -0.00059   0.00000  -0.00658  -0.00640   3.10786
    R5        1.81776  -0.00086   0.00000  -0.00155  -0.00155   1.81621
    R6        3.04505   0.01075   0.00000   0.02588   0.02607   3.07112
    R7        3.09650   0.00370   0.00000   0.00830   0.00831   3.10482
    R8        3.11427  -0.00029   0.00000  -0.00309  -0.00279   3.11148
    R9        3.11427  -0.00001   0.00000  -0.00250  -0.00222   3.11204
   R10        1.80820  -0.00137   0.00000  -0.00244  -0.00242   1.80578
   R11        1.80658   0.00089   0.00000   0.00000   0.00000   1.80658
   R12        1.80658   0.00083   0.00000   0.00000   0.00000   1.80658
   R13        1.80658   0.00193   0.00000   0.00000   0.00000   1.80658
   R14        1.80658   0.00189   0.00000   0.00000   0.00000   1.80658
    A1        1.95576   0.00032   0.00000  -0.00206  -0.00212   1.95364
    A2        1.93553  -0.00019   0.00000   0.00454   0.00449   1.94002
    A3        1.93989  -0.00045   0.00000   0.00236   0.00232   1.94221
    A4        1.88939  -0.00193   0.00000  -0.00537  -0.00523   1.88415
    A5        1.88873  -0.00201   0.00000  -0.00535  -0.00525   1.88348
    A6        1.85052   0.00439   0.00000   0.00591   0.00576   1.85628
    A7        2.04327  -0.00194   0.00000  -0.01201  -0.01201   2.03126
    A8        2.41287   0.00235   0.00000   0.02208   0.02197   2.43484
    A9        1.86032   0.00240   0.00000   0.01315   0.01309   1.87341
   A10        1.94199  -0.00302   0.00000  -0.01508  -0.01505   1.92694
   A11        1.94145  -0.00309   0.00000  -0.01481  -0.01481   1.92664
   A12        1.93711   0.00011   0.00000   0.00744   0.00745   1.94456
   A13        1.93668  -0.00002   0.00000   0.00651   0.00653   1.94321
   A14        1.84786   0.00346   0.00000   0.00238   0.00214   1.84999
   A15        2.10295  -0.00162   0.00000  -0.01003  -0.01003   2.09292
   A16        1.94104   0.00105   0.00000   0.01037   0.01016   1.95120
   A17        1.94104   0.00111   0.00000   0.01029   0.01007   1.95111
   A18        1.90567   0.00329   0.00000   0.01790   0.01773   1.92340
   A19        1.90567   0.00334   0.00000   0.01783   0.01766   1.92333
    D1        0.02100  -0.00008   0.00000   0.00007   0.00006   0.02106
    D2        2.13451  -0.00246   0.00000  -0.00503  -0.00495   2.12956
    D3       -2.09474   0.00261   0.00000   0.00671   0.00664  -2.08810
    D4       -0.06976   0.00006   0.00000  -0.00087  -0.00087  -0.07064
    D5       -2.20969   0.00142   0.00000  -0.00154  -0.00155  -2.21124
    D6        2.07520  -0.00170   0.00000  -0.00296  -0.00296   2.07224
    D7        3.13708  -0.00027   0.00000  -0.01304  -0.01298   3.12410
    D8       -0.99391  -0.00129   0.00000  -0.01630  -0.01626  -1.01017
    D9        1.02939  -0.00232   0.00000  -0.02208  -0.02195   1.00744
   D10       -3.13425   0.00007   0.00000   0.01165   0.01161  -3.12264
   D11        0.99436   0.00133   0.00000   0.01634   0.01633   1.01069
   D12       -1.02939   0.00230   0.00000   0.02213   0.02200  -1.00739
   D13        0.06562   0.00007   0.00000   0.00189   0.00189   0.06751
   D14        2.17976  -0.00003   0.00000   0.01052   0.01039   2.19015
   D15       -2.04767   0.00037   0.00000  -0.00577  -0.00562  -2.05329
   D16        3.13812   0.00008   0.00000   0.00078   0.00079   3.13891
   D17        1.02087   0.00218   0.00000   0.00655   0.00648   1.02735
   D18       -1.02873  -0.00218   0.00000  -0.00521  -0.00516  -1.03389
   D19        1.01959  -0.00018   0.00000   0.00613   0.00639   1.02598
   D20        3.08815   0.00095   0.00000   0.01769   0.01779   3.10594
   D21       -1.09197   0.00311   0.00000   0.03114   0.03124  -1.06073
   D22       -1.01994   0.00016   0.00000  -0.00601  -0.00627  -1.02622
   D23       -3.08787  -0.00084   0.00000  -0.01713  -0.01725  -3.10511
   D24        1.09197  -0.00308   0.00000  -0.03118  -0.03129   1.06069
         Item               Value     Threshold  Converged?
 Maximum Force            0.008730     0.000450     NO 
 RMS     Force            0.002493     0.000300     NO 
 Maximum Displacement     0.098348     0.001800     NO 
 RMS     Displacement     0.025956     0.001200     NO 
 Predicted change in Energy=-7.388709D-04
 Lowest energy point so far.  Saving SCF results.
 GradGradGradGradGradGradGradGradGradGradGradGradGradGradGradGradGradGrad

 Leave Link  103 at Sun Feb  3 01:45:46 2019, MaxMem=    33554432 cpu:         0.4
 (Enter /sw/chem/g09/l202.exe)
                          Input orientation:                          
 ---------------------------------------------------------------------
 Center     Atomic      Atomic             Coordinates (Angstroms)
 Number     Number       Type             X           Y           Z
 ---------------------------------------------------------------------
      1         14           0       -1.212529   -0.949040   -1.927298
      2          8           0       -0.148748    0.014181   -1.169688
      3          8           0       -0.775532   -2.540436   -1.839947
      4          1           0        0.613244   -0.418428   -0.774820
      5         14           0        0.445926   -3.458041   -1.285683
      6          8           0        1.505390   -2.456978   -0.527493
      7          1           0        2.297007   -2.814370   -0.129066
      8          8           0       -2.715603   -0.799773   -1.277616
      9          8           0       -1.353063   -0.549497   -3.516436
     10          8           0       -0.124061   -4.615912   -0.263194
     11          8           0        1.167094   -4.264251   -2.527443
     12          1           0       -3.353167   -1.352179   -1.727389
     13          1           0       -1.990626   -1.101903   -3.966209
     14          1           0       -0.761806   -5.168360   -0.712659
     15          1           0        0.529349   -4.816699   -2.976909
 ---------------------------------------------------------------------
                    Distance matrix (angstroms):
                    1          2          3          4          5
     1  Si   0.000000
     2  O    1.622774   0.000000
     3  O    1.652615   2.714437   0.000000
     4  H    2.223331   0.961095   2.750656   0.000000
     5  Si   3.075261   3.524688   1.625168   3.086783   0.000000
     6  O    3.408872   3.042238   2.632889   2.238924   1.642998
     7  H    4.362331   3.881406   3.527413   2.998765   2.275648
     8  O    1.644263   2.694979   2.666458   3.388134   4.130584
     9  O    1.644611   2.697282   2.666083   3.376389   4.083167
    10  O    4.171325   4.718062   2.686664   4.292348   1.646522
    11  O    4.124730   4.677598   2.686631   4.262487   1.646823
    12  H    2.187422   3.527927   2.840567   4.184698   4.366105
    13  H    2.187684   3.529687   2.840215   4.175194   4.321273
    14  H    4.413746   5.238649   2.859537   4.945349   2.170752
    15  H    4.369737   5.202236   2.859505   4.919453   2.170980
                    6          7          8          9         10
     6  O    0.000000
     7  H    0.955579   0.000000
     8  O    4.596280   5.523045   0.000000
     9  O    4.554450   5.470551   2.632768   0.000000
    10  O    2.717713   3.020780   4.723141   5.350679   0.000000
    11  O    2.716704   3.021766   5.351636   4.596596   2.630128
    12  H    5.125027   6.051206   0.956000   2.800965   4.819019
    13  H    5.087546   6.003333   2.800965   0.956000   5.435498
    14  H    3.539217   3.903612   4.818823   5.435498   0.956000
    15  H    3.538443   3.904374   5.436267   4.695058   2.798483
                   11         12         13         14         15
    11  O    0.000000
    12  H    5.436267   0.000000
    13  H    4.694857   2.632768   0.000000
    14  H    2.798483   4.723141   5.350855   0.000000
    15  H    0.956000   5.351460   4.596596   2.630128   0.000000
 Symmetry turned off by external request.
 Stoichiometry    H6O7Si2
 Framework group  C1[X(H6O7Si2)]
 Deg. of freedom    39
 Full point group                 C1      NOp   1
 Rotational constants (GHZ):      0.0000003      0.0000001      0.0000001
 Leave Link  202 at Sun Feb  3 01:45:46 2019, MaxMem=    33554432 cpu:         0.1
 (Enter /sw/chem/g09/l301.exe)
 Standard basis: TZVP (5D, 7F)
 Ernie: Thresh=  0.10000D-02 Tol=  0.10000D-05 Strict=F.
   213 basis functions,   387 primitive gaussians,   222 cartesian basis functions
    45 alpha electrons       45 beta electrons
       nuclear repulsion energy       734.4833626381 Hartrees.
 IExCor= 4639 DFT=T Ex+Corr=wB97XD ExCW=0 ScaHFX=  1.000000
 ScaDFX=  1.000000  1.000000  1.000000  1.000000 ScalE2=  1.000000  1.000000
 IRadAn=      0 IRanWt=     -1 IRanGd=            0 ICorTp=0 IEmpDi=121
  HFx wShort=  0.000000 wLong=  0.200000 cFull=  0.222036 cShort=  0.000000 cLong=  0.777964
  DFx wShort=  0.000000 wLong=  0.200000 cFull=  0.000000 cShort=  0.000000 cLong=  1.000000
 NAtoms=   15 NActive=   15 NUniq=   15 SFac= 1.00D+00 NAtFMM=   60 NAOKFM=F Big=F
 Integral buffers will be    131072 words long.
 Raffenetti 2 integral format.
 Two-electron integral symmetry is turned off.
 R6Disp:  Grimme-D2 Dispersion energy=       -0.0063679589 Hartrees.
 Nuclear repulsion after empirical dispersion term =      734.4769946792 Hartrees.
 Leave Link  301 at Sun Feb  3 01:45:46 2019, MaxMem=    33554432 cpu:         0.5
 (Enter /sw/chem/g09/l302.exe)
 NPDir=0 NMtPBC=     1 NCelOv=     1 NCel=       1 NClECP=     1 NCelD=      1
         NCelK=      1 NCelE2=     1 NClLst=     1 CellRange=     0.0.
 One-electron integrals computed using PRISM.
 PrsmSu:  requested number of processors reduced to:   9 ShMem   1 Linda.
 NBasis=   213 RedAO= T EigKep=  1.73D-03  NBF=   213
 NBsUse=   213 1.00D-06 EigRej= -1.00D+00 NBFU=   213
 Precomputing XC quadrature grid using
 IXCGrd= 4 IRadAn=           0 IRanWt=          -1 IRanGd=           0 AccXCQ= 0.00D+00.
 Generated NRdTot=       0 NPtTot=           0 NUsed=           0 NTot=          32
 NSgBfM=   218   218   218   218   218 MxSgAt=    15 MxSgA2=    15.
 Leave Link  302 at Sun Feb  3 01:45:47 2019, MaxMem=    33554432 cpu:         2.7
 (Enter /sw/chem/g09/l303.exe)
 DipDrv:  MaxL=1.
 Leave Link  303 at Sun Feb  3 01:45:47 2019, MaxMem=    33554432 cpu:         0.4
 (Enter /sw/chem/g09/l401.exe)
 Initial guess from the checkpoint file:  "stuff.chk"
 B after Tr=     0.020374    0.014536    0.009310
         Rot=    1.000000    0.000350   -0.000231   -0.000195 Ang=   0.05 deg.
 Guess basis will be translated and rotated to current coordinates.
 JPrj=2 DoOrth=T DoCkMO=T.
 Generating alternative initial guess.
 ExpMin= 7.01D-02 ExpMax= 4.48D+04 ExpMxC= 1.53D+03 IAcc=2 IRadAn=         4 AccDes= 0.00D+00
 Harris functional with IExCor= 4639 and IRadAn=       4 diagonalized for initial guess.
 HarFok:  IExCor= 4639 AccDes= 0.00D+00 IRadAn=         4 IDoV= 1 UseB2=F ITyADJ=14
 ICtDFT=  3500011 ScaDFX=  1.000000  1.000000  1.000000  1.000000
 FoFCou: FMM=F IPFlag=           0 FMFlag=      100000 FMFlg1=           0
         NFxFlg=           0 DoJE=T BraDBF=F KetDBF=T FulRan=T
         wScrn=  0.000000 ICntrl=     500 IOpCl=  0 I1Cent=   200000004 NGrid=           0
         NMat0=    1 NMatS0=      1 NMatT0=    0 NMatD0=    1 NMtDS0=    0 NMtDT0=    0
 Symmetry not used in FoFCou.
 Harris En= -1079.59817719270    
 Leave Link  401 at Sun Feb  3 01:45:47 2019, MaxMem=    33554432 cpu:         7.0
 (Enter /sw/chem/g09/l502.exe)
 Closed shell SCF:
 Using DIIS extrapolation, IDIIS=  1040.
 Two-electron integral symmetry not used.
 IVT=      170428 IEndB=      170428 NGot=    33554432 MDV=    33450151
 LenX=    33450151 LenY=    33400426
 Requested convergence on RMS density matrix=1.00D-08 within 128 cycles.
 Requested convergence on MAX density matrix=1.00D-06.
 Requested convergence on             energy=1.00D-06.
 No special actions if energy rises.
 Fock matrices will be formed incrementally for  20 cycles.
 Integral accuracy reduced to 1.0D-05 until final iterations.

 Cycle   1  Pass 0  IDiag  1:
 FoFJK:  IHMeth= 1 ICntrl=       0 DoSepK=T KAlg= 0 I1Cent=   0 FoldK=F
 IRaf=         1 NMat=   1 IRICut=       1 DoRegI=T DoRafI=F ISym2E= 0.
 FoFCou: FMM=F IPFlag=           0 FMFlag=      100000 FMFlg1=           0
         NFxFlg=           0 DoJE=T BraDBF=F KetDBF=F FulRan=T
         wScrn=  0.000000 ICntrl=     500 IOpCl=  0 I1Cent=           0 NGrid=           0
         NMat0=    1 NMatS0=      1 NMatT0=    0 NMatD0=    1 NMtDS0=    0 NMtDT0=    0
 Symmetry not used in FoFCou.
 E= -1109.58882886999    
 DIIS: error= 1.55D-03 at cycle   1 NSaved=   1.
 NSaved= 1 IEnMin= 1 EnMin= -1109.58882886999     IErMin= 1 ErrMin= 1.55D-03
 ErrMax= 1.55D-03  0.00D+00 EMaxC= 1.00D-01 BMatC= 6.19D-04 BMatP= 6.19D-04
 IDIUse=3 WtCom= 9.85D-01 WtEn= 1.55D-02
 Coeff-Com:  0.100D+01
 Coeff-En:   0.100D+01
 Coeff:      0.100D+01
 Gap=     0.678 Goal=   None    Shift=    0.000
 GapD=    0.678 DampG=2.000 DampE=1.000 DampFc=2.0000 IDamp=-1.
 RMSDP=1.53D-04 MaxDP=3.25D-03              OVMax= 6.15D-03

 Cycle   2  Pass 0  IDiag  1:
 RMSU=  1.53D-04    CP:  1.00D+00
 E= -1109.58967426178     Delta-E=       -0.000845391794 Rises=F Damp=F
 DIIS: error= 7.69D-04 at cycle   2 NSaved=   2.
 NSaved= 2 IEnMin= 2 EnMin= -1109.58967426178     IErMin= 2 ErrMin= 7.69D-04
 ErrMax= 7.69D-04  0.00D+00 EMaxC= 1.00D-01 BMatC= 9.90D-05 BMatP= 6.19D-04
 IDIUse=3 WtCom= 9.92D-01 WtEn= 7.69D-03
 Coeff-Com:  0.106D+00 0.894D+00
 Coeff-En:   0.000D+00 0.100D+01
 Coeff:      0.105D+00 0.895D+00
 Gap=     0.450 Goal=   None    Shift=    0.000
 RMSDP=4.40D-05 MaxDP=1.92D-03 DE=-8.45D-04 OVMax= 2.41D-03

 Cycle   3  Pass 0  IDiag  1:
 RMSU=  4.24D-05    CP:  1.00D+00  1.08D+00
 E= -1109.58971084011     Delta-E=       -0.000036578325 Rises=F Damp=F
 DIIS: error= 6.67D-04 at cycle   3 NSaved=   3.
 NSaved= 3 IEnMin= 3 EnMin= -1109.58971084011     IErMin= 3 ErrMin= 6.67D-04
 ErrMax= 6.67D-04  0.00D+00 EMaxC= 1.00D-01 BMatC= 8.44D-05 BMatP= 9.90D-05
 IDIUse=3 WtCom= 9.93D-01 WtEn= 6.67D-03
 Coeff-Com: -0.968D-01 0.509D+00 0.588D+00
 Coeff-En:   0.000D+00 0.331D+00 0.669D+00
 Coeff:     -0.962D-01 0.508D+00 0.588D+00
 Gap=     0.450 Goal=   None    Shift=    0.000
 RMSDP=2.29D-05 MaxDP=9.72D-04 DE=-3.66D-05 OVMax= 1.41D-03

 Cycle   4  Pass 0  IDiag  1:
 RMSU=  1.21D-05    CP:  1.00D+00  1.17D+00  6.76D-01
 E= -1109.58976837261     Delta-E=       -0.000057532502 Rises=F Damp=F
 DIIS: error= 3.54D-05 at cycle   4 NSaved=   4.
 NSaved= 4 IEnMin= 4 EnMin= -1109.58976837261     IErMin= 4 ErrMin= 3.54D-05
 ErrMax= 3.54D-05  0.00D+00 EMaxC= 1.00D-01 BMatC= 5.08D-07 BMatP= 8.44D-05
 IDIUse=1 WtCom= 1.00D+00 WtEn= 0.00D+00
 Coeff-Com: -0.162D-01 0.326D-01 0.812D-01 0.902D+00
 Coeff:     -0.162D-01 0.326D-01 0.812D-01 0.902D+00
 Gap=     0.450 Goal=   None    Shift=    0.000
 RMSDP=4.12D-06 MaxDP=9.03D-05 DE=-5.75D-05 OVMax= 1.86D-04

 Initial convergence to 1.0D-05 achieved.  Increase integral accuracy.
 Cycle   5  Pass 1  IDiag  1:
 E= -1109.58950565909     Delta-E=        0.000262713522 Rises=F Damp=F
 DIIS: error= 5.48D-05 at cycle   1 NSaved=   1.
 NSaved= 1 IEnMin= 1 EnMin= -1109.58950565909     IErMin= 1 ErrMin= 5.48D-05
 ErrMax= 5.48D-05  0.00D+00 EMaxC= 1.00D-01 BMatC= 2.37D-06 BMatP= 2.37D-06
 IDIUse=1 WtCom= 1.00D+00 WtEn= 0.00D+00
 Coeff-Com:  0.100D+01
 Coeff:      0.100D+01
 Gap=     0.450 Goal=   None    Shift=    0.000
 RMSDP=4.12D-06 MaxDP=9.03D-05 DE= 2.63D-04 OVMax= 1.95D-04

 Cycle   6  Pass 1  IDiag  1:
 RMSU=  9.37D-06    CP:  1.00D+00
 E= -1109.58950714245     Delta-E=       -0.000001483356 Rises=F Damp=F
 DIIS: error= 3.32D-05 at cycle   2 NSaved=   2.
 NSaved= 2 IEnMin= 2 EnMin= -1109.58950714245     IErMin= 2 ErrMin= 3.32D-05
 ErrMax= 3.32D-05  0.00D+00 EMaxC= 1.00D-01 BMatC= 3.84D-07 BMatP= 2.37D-06
 IDIUse=1 WtCom= 1.00D+00 WtEn= 0.00D+00
 Coeff-Com:  0.190D+00 0.810D+00
 Coeff:      0.190D+00 0.810D+00
 Gap=     0.450 Goal=   None    Shift=    0.000
 RMSDP=2.53D-06 MaxDP=1.16D-04 DE=-1.48D-06 OVMax= 9.35D-05

 Cycle   7  Pass 1  IDiag  1:
 RMSU=  2.52D-06    CP:  1.00D+00  9.90D-01
 E= -1109.58950729177     Delta-E=       -0.000000149322 Rises=F Damp=F
 DIIS: error= 2.32D-05 at cycle   3 NSaved=   3.
 NSaved= 3 IEnMin= 3 EnMin= -1109.58950729177     IErMin= 3 ErrMin= 2.32D-05
 ErrMax= 2.32D-05  0.00D+00 EMaxC= 1.00D-01 BMatC= 1.75D-07 BMatP= 3.84D-07
 IDIUse=1 WtCom= 1.00D+00 WtEn= 0.00D+00
 Coeff-Com: -0.341D-01 0.395D+00 0.639D+00
 Coeff:     -0.341D-01 0.395D+00 0.639D+00
 Gap=     0.450 Goal=   None    Shift=    0.000
 RMSDP=9.97D-07 MaxDP=3.38D-05 DE=-1.49D-07 OVMax= 4.24D-05

 Cycle   8  Pass 1  IDiag  1:
 RMSU=  6.52D-07    CP:  1.00D+00  1.04D+00  7.82D-01
 E= -1109.58950739885     Delta-E=       -0.000000107087 Rises=F Damp=F
 DIIS: error= 2.92D-06 at cycle   4 NSaved=   4.
 NSaved= 4 IEnMin= 4 EnMin= -1109.58950739885     IErMin= 4 ErrMin= 2.92D-06
 ErrMax= 2.92D-06  0.00D+00 EMaxC= 1.00D-01 BMatC= 2.57D-09 BMatP= 1.75D-07
 IDIUse=1 WtCom= 1.00D+00 WtEn= 0.00D+00
 Coeff-Com: -0.160D-01 0.966D-01 0.192D+00 0.727D+00
 Coeff:     -0.160D-01 0.966D-01 0.192D+00 0.727D+00
 Gap=     0.450 Goal=   None    Shift=    0.000
 RMSDP=2.14D-07 MaxDP=6.80D-06 DE=-1.07D-07 OVMax= 9.30D-06

 Cycle   9  Pass 1  IDiag  1:
 RMSU=  1.93D-07    CP:  1.00D+00  1.05D+00  8.05D-01  1.00D+00
 E= -1109.58950740058     Delta-E=       -0.000000001724 Rises=F Damp=F
 DIIS: error= 1.36D-06 at cycle   5 NSaved=   5.
 NSaved= 5 IEnMin= 5 EnMin= -1109.58950740058     IErMin= 5 ErrMin= 1.36D-06
 ErrMax= 1.36D-06  0.00D+00 EMaxC= 1.00D-01 BMatC= 5.22D-10 BMatP= 2.57D-09
 IDIUse=1 WtCom= 1.00D+00 WtEn= 0.00D+00
 Coeff-Com: -0.313D-02-0.150D-02 0.119D-01 0.305D+00 0.688D+00
 Coeff:     -0.313D-02-0.150D-02 0.119D-01 0.305D+00 0.688D+00
 Gap=     0.450 Goal=   None    Shift=    0.000
 RMSDP=8.71D-08 MaxDP=2.96D-06 DE=-1.72D-09 OVMax= 4.27D-06

 Cycle  10  Pass 1  IDiag  1:
 RMSU=  6.31D-08    CP:  1.00D+00  1.05D+00  8.13D-01  1.08D+00  9.96D-01
 E= -1109.58950740094     Delta-E=       -0.000000000357 Rises=F Damp=F
 DIIS: error= 4.19D-07 at cycle   6 NSaved=   6.
 NSaved= 6 IEnMin= 6 EnMin= -1109.58950740094     IErMin= 6 ErrMin= 4.19D-07
 ErrMax= 4.19D-07  0.00D+00 EMaxC= 1.00D-01 BMatC= 4.91D-11 BMatP= 5.22D-10
 IDIUse=1 WtCom= 1.00D+00 WtEn= 0.00D+00
 Coeff-Com:  0.108D-02-0.140D-01-0.229D-01-0.639D-04 0.247D+00 0.789D+00
 Coeff:      0.108D-02-0.140D-01-0.229D-01-0.639D-04 0.247D+00 0.789D+00
 Gap=     0.450 Goal=   None    Shift=    0.000
 RMSDP=3.82D-08 MaxDP=1.31D-06 DE=-3.57D-10 OVMax= 1.35D-06

 Cycle  11  Pass 1  IDiag  1:
 RMSU=  2.00D-08    CP:  1.00D+00  1.05D+00  8.19D-01  1.12D+00  1.07D+00
                    CP:  9.48D-01
 E= -1109.58950740099     Delta-E=       -0.000000000058 Rises=F Damp=F
 DIIS: error= 6.23D-08 at cycle   7 NSaved=   7.
 NSaved= 7 IEnMin= 7 EnMin= -1109.58950740099     IErMin= 7 ErrMin= 6.23D-08
 ErrMax= 6.23D-08  0.00D+00 EMaxC= 1.00D-01 BMatC= 1.31D-12 BMatP= 4.91D-11
 IDIUse=1 WtCom= 1.00D+00 WtEn= 0.00D+00
 Coeff-Com:  0.358D-03-0.243D-02-0.482D-02-0.185D-01 0.469D-02 0.143D+00
 Coeff-Com:  0.878D+00
 Coeff:      0.358D-03-0.243D-02-0.482D-02-0.185D-01 0.469D-02 0.143D+00
 Coeff:      0.878D+00
 Gap=     0.450 Goal=   None    Shift=    0.000
 RMSDP=9.68D-09 MaxDP=2.68D-07 DE=-5.82D-11 OVMax= 3.89D-07

 SCF Done:  E(RwB97XD) =  -1109.58950740     A.U. after   11 cycles
            NFock= 11  Conv=0.97D-08     -V/T= 2.0035
 KE= 1.105716976189D+03 PE=-4.102569720686D+03 EE= 1.152786242416D+03
 Leave Link  502 at Sun Feb  3 01:46:02 2019, MaxMem=    33554432 cpu:       178.3
 (Enter /sw/chem/g09/l701.exe)
 Compute integral first derivatives.
 ... and contract with generalized density number  0.
 R6Disp: Adding Grimme-D2 dispersion energy 1st derivatives to the gradient.
 PrsmSu:  requested number of processors reduced to:   9 ShMem   1 Linda.
 Leave Link  701 at Sun Feb  3 01:46:02 2019, MaxMem=    33554432 cpu:         2.1
 (Enter /sw/chem/g09/l702.exe)
 L702 exits ... SP integral derivatives will be done elsewhere.
 Leave Link  702 at Sun Feb  3 01:46:02 2019, MaxMem=    33554432 cpu:         0.2
 (Enter /sw/chem/g09/l703.exe)
 Compute integral first derivatives, UseDBF=F ICtDFT=           0.
 Integral derivatives from FoFJK, PRISM(SPDF).
 Calling FoFJK, ICntrl=      2127 FMM=F ISym2X=0 I1Cent= 0 IOpClX= 0 NMat=1 NMatS=1 NMatT=0.
 FoFJK:  IHMeth= 1 ICntrl=    2127 DoSepK=T KAlg= 0 I1Cent=   0 FoldK=F
 IRaf=         1 NMat=   1 IRICut=       1 DoRegI=T DoRafI=F ISym2E= 0.
 FoFCou: FMM=F IPFlag=           0 FMFlag=      100000 FMFlg1=         800
         NFxFlg=           0 DoJE=F BraDBF=F KetDBF=F FulRan=T
         wScrn=  0.000000 ICntrl=    2527 IOpCl=  0 I1Cent=           0 NGrid=           0
         NMat0=    1 NMatS0=      1 NMatT0=    0 NMatD0=    1 NMtDS0=    0 NMtDT0=    0
 Symmetry not used in FoFCou.
 Leave Link  703 at Sun Feb  3 01:46:06 2019, MaxMem=    33554432 cpu:        49.1
 (Enter /sw/chem/g09/l716.exe)
 Dipole        =-3.63168385D-01-1.86121318D+00-4.71281150D-01
 -------------------------------------------------------------------
 Center     Atomic                   Forces (Hartrees/Bohr)
 Number     Number              X              Y              Z
 -------------------------------------------------------------------
      1       14          -0.004698985    0.002495292   -0.002455081
      2        8           0.001624929    0.001009212    0.001085051
      3        8           0.000312335    0.000146926    0.000711957
      4        1          -0.000180265   -0.000167117   -0.000155886
      5       14           0.003739150   -0.003747957    0.001584464
      6        8          -0.001024942    0.000749757   -0.000409665
      7        1           0.000062204   -0.000538514   -0.000111093
      8        8          -0.001641784   -0.001169549    0.006895065
      9        8           0.005183997    0.000126782   -0.004950939
     10        8          -0.002684313    0.002467704    0.004727739
     11        8           0.002340939    0.003660289   -0.004015686
     12        1          -0.004217123    0.000957462    0.002883976
     13        1           0.000516069    0.001828541   -0.004898187
     14        1          -0.002867683   -0.004791445    0.005140193
     15        1           0.003535471   -0.003027384   -0.006031907
 -------------------------------------------------------------------
 Cartesian Forces:  Max     0.006895065 RMS     0.003042060
 Leave Link  716 at Sun Feb  3 01:46:06 2019, MaxMem=    33554432 cpu:         0.2
 (Enter /sw/chem/g09/l103.exe)

 GradGradGradGradGradGradGradGradGradGradGradGradGradGradGradGradGradGrad
 Berny optimization.
 Using GEDIIS/GDIIS optimizer.
 FormGI is forming the generalized inverse of G from B-inverse, IUseBI=4.
 Internal  Forces:  Max     0.005422422 RMS     0.001827925
 Search for a local minimum.
 Step number   2 out of a maximum of   91
 All quantities printed in internal units (Hartrees-Bohrs-Radians)
 RMS Force = .69421D-03 SwitMx=.10000D-02 MixMth= 2
 Mixed Optimization -- En-DIIS/RFO-DIIS
 Update second derivatives using D2CorX and points    1    2
 DE= -8.94D-04 DEPred=-7.39D-04 R= 1.21D+00
 TightC=F SS=  1.41D+00  RLast= 9.38D-02 DXNew= 5.0454D-01 2.8155D-01
 Trust test= 1.21D+00 RLast= 9.38D-02 DXMaxT set to 3.00D-01
 ITU=  1  0
 Use linear search instead of GDIIS.
     Eigenvalues ---    0.03828   0.04090   0.05134   0.08036   0.12613
     Eigenvalues ---    0.12990   0.13299   0.14357   0.14939   0.15966
     Eigenvalues ---    0.16025   0.20891   0.26216   0.29513   0.35598
     Eigenvalues ---    0.39777   0.45267   0.46324   0.47582   0.55062
     Eigenvalues ---    0.562711000.000001000.000001000.000001000.00000
     Eigenvalues --- 1000.000001000.000001000.000001000.000001000.00000
     Eigenvalues --- 1000.000001000.000001000.000001000.000001000.00000
     Eigenvalues --- 1000.000001000.000001000.000001000.000001000.00000
     Eigenvalues --- 1000.000001000.000001000.000001000.000001000.00000
     Eigenvalues --- 1000.000001000.000001000.000001000.000001000.00000
     Eigenvalues --- 1000.000001000.000001000.000001000.000001000.00000
     Eigenvalues --- 1000.000001000.000001000.000001000.000001000.00000
     Eigenvalues --- 1000.000001000.000001000.000001000.000001000.00000
     Eigenvalues --- 1000.000001000.000001000.000001000.000001000.00000
     Eigenvalues --- 1000.000001000.000001000.000001000.000001000.00000
     Eigenvalues --- 1000.000001000.000001000.000001000.000001000.00000
     Eigenvalues --- 1000.00000
 RFO step:  Lambda=-8.45176622D-05 EMin= 3.82808779D-02
 Quartic linear search produced a step of  0.34580.
 Iteration  1 RMS(Cart)=  0.00996565 RMS(Int)=  0.00006773
 Iteration  2 RMS(Cart)=  0.00005015 RMS(Int)=  0.00005879
 Iteration  3 RMS(Cart)=  0.00000790 RMS(Int)=  0.00005903
 Iteration  4 RMS(Cart)=  0.00000000 RMS(Int)=  0.00005903
 ITry= 1 IFail=0 DXMaxC= 3.47D-02 DCOld= 1.00D+10 DXMaxT= 3.00D-01 DXLimC= 3.00D+00 Rises=F
 Variable       Old X    -DE/DX   Delta X   Delta X   Delta X     New X
                                 (Linear)    (Quad)   (Total)
    X8       -5.13175  -0.00195   0.00000   0.00000   0.00000  -5.13175
    Y8       -1.51135   0.00026   0.00000   0.00000   0.00000  -1.51135
    Z8       -2.41434   0.00342   0.00000   0.00000   0.00000  -2.41434
    X9       -2.55692   0.00192   0.00000   0.00000   0.00000  -2.55692
    Y9       -1.03840   0.00094   0.00000   0.00000   0.00000  -1.03840
    Z9       -6.64510  -0.00321   0.00000   0.00000   0.00000  -6.64510
   X10       -0.23444  -0.00130   0.00000   0.00000   0.00000  -0.23444
   Y10       -8.72281   0.00011   0.00000   0.00000   0.00000  -8.72281
   Z10       -0.49736   0.00316   0.00000   0.00000   0.00000  -0.49736
   X11        2.20549   0.00193   0.00000   0.00000   0.00000   2.20549
   Y11       -8.05827   0.00095   0.00000   0.00000   0.00000  -8.05827
   Z11       -4.77618  -0.00253   0.00000   0.00000   0.00000  -4.77618
   X12       -6.33657  -0.00351   0.00000   0.00000   0.00000  -6.33657
   Y12       -2.55525   0.00049   0.00000   0.00000   0.00000  -2.55525
   Z12       -3.26429   0.00390   0.00000   0.00000   0.00000  -3.26429
   X13       -3.76174   0.00167   0.00000   0.00000   0.00000  -3.76174
   Y13       -2.08230   0.00146   0.00000   0.00000   0.00000  -2.08230
   Z13       -7.49505  -0.00479   0.00000   0.00000   0.00000  -7.49505
   X14       -1.43961  -0.00247   0.00000   0.00000   0.00000  -1.43961
   Y14       -9.76678  -0.00293   0.00000   0.00000   0.00000  -9.76678
   Z14       -1.34673   0.00542   0.00000   0.00000   0.00000  -1.34673
   X15        1.00032   0.00371   0.00000   0.00000   0.00000   1.00032
   Y15       -9.10224  -0.00128   0.00000   0.00000   0.00000  -9.10224
   Z15       -5.62554  -0.00537   0.00000   0.00000   0.00000  -5.62554
    R1        3.06660   0.00188   0.00257   0.00320   0.00577   3.07237
    R2        3.12299   0.00232   0.00949   0.00031   0.00993   3.13292
    R3        3.10721   0.00125  -0.00244  -0.00210  -0.00442   3.10279
    R4        3.10786   0.00149  -0.00221  -0.00161  -0.00372   3.10415
    R5        1.81621  -0.00013  -0.00054   0.00012  -0.00042   1.81579
    R6        3.07112   0.00217   0.00901  -0.00032   0.00881   3.07993
    R7        3.10482  -0.00073   0.00288  -0.00457  -0.00169   3.10312
    R8        3.11148   0.00107  -0.00097  -0.00214  -0.00293   3.10855
    R9        3.11204   0.00125  -0.00077  -0.00171  -0.00234   3.10971
   R10        1.80578   0.00021  -0.00084   0.00119   0.00036   1.80614
   R11        1.80658   0.00068   0.00000   0.00000   0.00000   1.80658
   R12        1.80658   0.00061   0.00000   0.00000   0.00000   1.80658
   R13        1.80658   0.00147   0.00000   0.00000   0.00000   1.80658
   R14        1.80658   0.00144   0.00000   0.00000   0.00000   1.80658
    A1        1.95364  -0.00071  -0.00073  -0.00575  -0.00652   1.94712
    A2        1.94002  -0.00049   0.00155   0.00144   0.00296   1.94298
    A3        1.94221  -0.00060   0.00080   0.00077   0.00154   1.94375
    A4        1.88415  -0.00049  -0.00181   0.00087  -0.00085   1.88331
    A5        1.88348  -0.00049  -0.00182   0.00145  -0.00032   1.88316
    A6        1.85628   0.00296   0.00199   0.00159   0.00351   1.85979
    A7        2.03126  -0.00047  -0.00415  -0.00072  -0.00487   2.02639
    A8        2.43484   0.00048   0.00760   0.01006   0.01761   2.45245
    A9        1.87341  -0.00062   0.00453  -0.00789  -0.00340   1.87001
   A10        1.92694  -0.00062  -0.00520   0.00043  -0.00472   1.92222
   A11        1.92664  -0.00061  -0.00512   0.00108  -0.00403   1.92261
   A12        1.94456  -0.00031   0.00258   0.00278   0.00533   1.94989
   A13        1.94321  -0.00039   0.00226   0.00221   0.00445   1.94766
   A14        1.84999   0.00253   0.00074   0.00164   0.00225   1.85224
   A15        2.09292  -0.00092  -0.00347  -0.00505  -0.00852   2.08440
   A16        1.95120   0.00007   0.00351   0.00084   0.00422   1.95542
   A17        1.95111   0.00013   0.00348   0.00077   0.00413   1.95524
   A18        1.92340   0.00147   0.00613   0.00105   0.00708   1.93048
   A19        1.92333   0.00150   0.00611   0.00100   0.00701   1.93034
    D1        0.02106  -0.00002   0.00002   0.00038   0.00039   0.02145
    D2        2.12956  -0.00148  -0.00171  -0.00147  -0.00313   2.12643
    D3       -2.08810   0.00153   0.00230   0.00197   0.00423  -2.08387
    D4       -0.07064  -0.00001  -0.00030  -0.00178  -0.00208  -0.07272
    D5       -2.21124   0.00140  -0.00054  -0.00049  -0.00104  -2.21228
    D6        2.07224  -0.00156  -0.00102  -0.00351  -0.00454   2.06770
    D7        3.12410   0.00016  -0.00449   0.00028  -0.00417   3.11993
    D8       -1.01017  -0.00137  -0.00562  -0.00539  -0.01098  -1.02116
    D9        1.00744  -0.00069  -0.00759  -0.00250  -0.01001   0.99744
   D10       -3.12264  -0.00025   0.00401  -0.00067   0.00332  -3.11933
   D11        1.01069   0.00135   0.00565   0.00504   0.01069   1.02137
   D12       -1.00739   0.00067   0.00761   0.00254   0.01006  -0.99733
   D13        0.06751   0.00005   0.00065   0.00183   0.00248   0.06999
   D14        2.19015  -0.00108   0.00359   0.00051   0.00406   2.19421
   D15       -2.05329   0.00128  -0.00194   0.00344   0.00156  -2.05173
   D16        3.13891   0.00004   0.00027   0.00072   0.00101   3.13993
   D17        1.02735   0.00138   0.00224   0.00362   0.00583   1.03318
   D18       -1.03389  -0.00134  -0.00178  -0.00170  -0.00348  -1.03736
   D19        1.02598   0.00113   0.00221   0.00520   0.00752   1.03350
   D20        3.10594  -0.00025   0.00615  -0.00261   0.00359   3.10953
   D21       -1.06073   0.00070   0.01080   0.00271   0.01356  -1.04717
   D22       -1.02622  -0.00111  -0.00217  -0.00481  -0.00712  -1.03334
   D23       -3.10511   0.00031  -0.00596   0.00294  -0.00308  -3.10819
   D24        1.06069  -0.00068  -0.01082  -0.00275  -0.01361   1.04708
         Item               Value     Threshold  Converged?
 Maximum Force            0.001881     0.000450     NO 
 RMS     Force            0.000694     0.000300     NO 
 Maximum Displacement     0.034696     0.001800     NO 
[...]
    R6        3.07579   0.00000   0.00000   0.00000   0.00000   3.07579
    R7        3.10102  -0.00001   0.00000  -0.00004  -0.00004   3.10097
    R8        3.10784   0.00202   0.00000   0.00000   0.00000   3.10784
    R9        3.10973   0.00204   0.00000  -0.00001  -0.00001   3.10972
   R10        1.80653   0.00000   0.00000  -0.00001  -0.00001   1.80652
   R11        1.80658   0.00045   0.00000   0.00000   0.00000   1.80658
   R12        1.80658   0.00040   0.00000   0.00000   0.00000   1.80658
   R13        1.80658   0.00112   0.00000   0.00000   0.00000   1.80658
   R14        1.80658   0.00111   0.00000   0.00000   0.00000   1.80658
    A1        1.94192  -0.00004   0.00000  -0.00001  -0.00001   1.94191
    A2        1.94057  -0.00071   0.00000  -0.00005  -0.00005   1.94052
    A3        1.93985  -0.00070   0.00000   0.00004   0.00004   1.93989
    A4        1.88661  -0.00042   0.00000   0.00028   0.00028   1.88689
    A5        1.89171  -0.00040   0.00000  -0.00027  -0.00027   1.89144
    A6        1.86018   0.00237   0.00000   0.00001   0.00001   1.86019
    A7        2.02437   0.00000   0.00000  -0.00001  -0.00001   2.02437
    A8        2.50148  -0.00178   0.00000   0.00009   0.00009   2.50157
    A9        1.86492  -0.00013   0.00000   0.00001   0.00001   1.86493
   A10        1.92310  -0.00029   0.00000   0.00027   0.00027   1.92336
   A11        1.92884  -0.00024   0.00000  -0.00030  -0.00030   1.92854
   A12        1.95023  -0.00073   0.00000  -0.00006  -0.00006   1.95017
   A13        1.94529  -0.00075   0.00000   0.00007   0.00007   1.94537
   A14        1.85254   0.00211   0.00000   0.00000   0.00000   1.85254
   A15        2.08287   0.00001   0.00000   0.00013   0.00013   2.08300
   A16        1.96246  -0.00047   0.00000   0.00000   0.00000   1.96247
   A17        1.96220  -0.00032   0.00000   0.00001   0.00001   1.96220
   A18        1.93945   0.00061   0.00000   0.00002   0.00002   1.93946
   A19        1.93921   0.00070   0.00000   0.00002   0.00002   1.93923
    D1        0.02424   0.00001   0.00000  -0.00059  -0.00059   0.02365
    D2        2.12822  -0.00104   0.00000  -0.00027  -0.00027   2.12795
    D3       -2.08572   0.00102   0.00000  -0.00027  -0.00027  -2.08600
    D4       -0.08794   0.00003   0.00000   0.00105   0.00105  -0.08689
    D5       -2.22341   0.00122   0.00000   0.00093   0.00093  -2.22248
    D6        2.05005  -0.00114   0.00000   0.00092   0.00092   2.05096
    D7        3.10066   0.00001   0.00000   0.00001   0.00001   3.10066
    D8       -1.04623  -0.00077   0.00000   0.00016   0.00016  -1.04608
    D9        0.98410  -0.00022   0.00000  -0.00001  -0.00001   0.98408
   D10       -3.10095   0.00002   0.00000   0.00004   0.00004  -3.10091
   D11        1.04299   0.00079   0.00000   0.00020   0.00020   1.04319
   D12       -0.98393   0.00026   0.00000   0.00001   0.00001  -0.98392
   D13        0.08428  -0.00002   0.00000  -0.00100  -0.00100   0.08329
   D14        2.20627  -0.00116   0.00000  -0.00091  -0.00091   2.20536
   D15       -2.03505   0.00111   0.00000  -0.00092  -0.00092  -2.03597
   D16       -3.12037  -0.00001   0.00000   0.00218   0.00218  -3.11818
   D17        1.05807   0.00086   0.00000   0.00189   0.00189   1.05996
   D18       -1.01149  -0.00083   0.00000   0.00187   0.00187  -1.00962
   D19        1.05749   0.00077   0.00000  -0.00017  -0.00017   1.05732
   D20        3.12794  -0.00005   0.00000  -0.00003  -0.00003   3.12792
   D21       -1.03126  -0.00003   0.00000   0.00004   0.00004  -1.03123
   D22       -1.05389  -0.00080   0.00000  -0.00020  -0.00020  -1.05409
   D23       -3.12494   0.00000   0.00000  -0.00006  -0.00006  -3.12500
   D24        1.03111  -0.00002   0.00000  -0.00003  -0.00003   1.03108
         Item               Value     Threshold  Converged?
 Maximum Force            0.000010     0.000450     YES
 RMS     Force            0.000004     0.000300     YES
 Maximum Displacement     0.002201     0.001800     NO 
 RMS     Displacement     0.000324     0.001200     YES
 Predicted change in Energy=-4.240803D-08
 GradGradGradGradGradGradGradGradGradGradGradGradGradGradGradGradGradGrad

 Leave Link  103 at Sun Feb  3 01:50:55 2019, MaxMem=    33554432 cpu:         0.2
 (Enter /sw/chem/g09/l9999.exe)
 1\1\GINC-NODE131\Freq\RwB97XD\TZVP\H6O7Si2\SALMAN\03-Feb-2019\0\\#P Ge
 om=AllCheck Guess=TCheck SCRF=Check GenChk RwB97XD/TZVP Freq\\Bare Sit
 e\\0,1\Si,-1.211754274,-0.9250348916,-1.9236288782\O,-0.1655370313,0.0
 722613544,-1.1759419597\O,-0.7297053019,-2.501306789,-1.8003561258\H,0
 .6016690853,-0.3450946262,-0.7771017079\Si,0.4733052802,-3.4608368408,
 -1.2699966173\O,1.5549343761,-2.490365579,-0.5076936444\H,2.3493914504
 ,-2.8734327328,-0.1389286029\O,-2.7156031804,-0.799772841,-1.277616237
 5\O,-1.353062758,-0.5494969057,-3.5164361797\O,-0.1240614526,-4.615912
 1164,-0.2631938976\O,1.1670937081,-4.2642508809,-2.5274431201\H,-3.353
 1668421,-1.3521793944,-1.7273890436\H,-1.9906264197,-1.1019034591,-3.9
 662089858\H,-0.7618061806,-5.1683598109,-0.7126593653\H,0.5293489801,-
 4.8166985754,-2.9769085878\\Version=ES64L-G09RevD.01\HF=-1109.5896902\
 RMSD=3.467e-09\RMSF=2.751e-03\ZeroPoint=0.0406589\Thermal=0.0615021\Di
 pole=-0.3856838,-1.8753797,-0.5101594\DipoleDeriv=2.4733505,-0.2142928
 ,0.1564053,-0.3595339,2.5050282,-0.1575005,0.1501101,-0.0893572,2.2372
 123,-0.9296972,-0.2028429,-0.174753,-0.1451708,-0.9108799,-0.1188881,-
 0.1688517,-0.1491449,-0.7991595,-1.2993688,0.6705928,-0.2155474,0.6669
 414,-1.9233217,0.2446854,-0.2173294,0.244856,-0.8681126,0.3557116,0.02
 02255,0.0242753,0.0005511,0.3831427,0.0097188,0.0225007,0.0209964,0.33
 50832,2.3251218,-0.3498159,0.0558866,-0.1353218,2.6358749,-0.0210942,0
 .0764471,-0.1302544,2.1870103,-1.0064634,-0.1210856,-0.2020613,-0.2067
 03,-0.8365485,-0.1339891,-0.212416,-0.0868144,-0.8333704,0.3508118,0.0
 604489,0.0021342,0.06374,0.2809484,0.0210721,0.0031657,0.0197806,0.372
 2914,-1.2286771,0.1407928,0.2075852,0.1096897,-0.6678522,0.0992908,0.2
 035191,0.0622575,-0.7340197,-0.6996184,0.1339082,-0.0732823,0.1545192,
 -0.6803704,0.1373383,-0.0767741,0.1864021,-1.2466107,-0.7571548,-0.099
 0133,0.2057883,-0.0931646,-1.0711352,0.2748332,0.1704046,0.2873574,-0.
 8151121,-0.686161,0.2104328,0.1713419,0.1902609,-0.9161929,-0.1966617,
 0.2049833,-0.2064377,-1.0377421,0.3601941,-0.0453276,-0.0327371,-0.045
 5025,0.2646064,-0.0831794,-0.0567349,-0.0900465,0.2522904,0.2581925,-0
 .1018092,-0.0102621,-0.0999314,0.2471456,-0.0217973,0.0152624,-0.016,0
 .3679883,0.2910467,-0.0201762,-0.0776638,-0.0271714,0.355669,-0.048591
 6,-0.0887193,-0.0655042,0.2322921,0.1927116,-0.0820374,-0.0371097,-0.0
 732029,0.3338856,-0.0052369,-0.0255677,0.0119093,0.349959\Polar=60.424
 9613,-1.8246672,61.8068182,4.1186844,0.1628322,55.3852347\PG=C01 [X(H6
 O7Si2)]\NImag=5\\0.55074942,0.03809013,0.45324763,0.05806231,0.0197845
 2,0.50337964,-0.15839721,-0.10843597,-0.08603040,0.52164892,-0.0882357
 3,-0.13422792,-0.06471151,-0.06459259,0.25925987,-0.08345582,-0.076695
 27,-0.09464103,0.28571008,-0.00794466,0.19141560,-0.05929744,0.0521783
 8,-0.00828165,0.01035323,-0.00530255,-0.00019732,0.25905356,0.05184749
 ,-0.21284382,0.01345527,-0.00586297,-0.02913571,-0.00768984,-0.2231182
 9,0.41906157,-0.00828434,0.01388144,-0.04084774,-0.00039477,-0.0079665
 1,0.00845331,0.08713372,-0.08525839,0.09187310,-0.01678159,0.00254689,
 -0.01086209,-0.34701373,0.16589932,-0.18305716,-0.00091526,0.00648359,
 0.00153064,0.36198178,-0.01899403,0.00371634,-0.01109652,0.19291099,-0
 .11074775,0.09959842,0.00333901,-0.00114954,0.00206387,-0.16982834,0.1
 1293716,-0.01359417,0.00170301,-0.00560527,-0.17972523,0.08367482,-0.0
 9644202,0.00112756,0.00381477,-0.00099325,0.18932254,-0.08603425,0.105
 47104,-0.00816470,0.04780881,-0.00449638,-0.01092458,-0.01295668,-0.00
 585657,-0.17318469,0.10690994,-0.06010651,0.00821150,-0.00397236,0.002
 49795,0.50716036,0.02873346,-0.03392007,0.01156439,-0.00208463,0.00958
 305,0.00042297,0.11015198,-0.13316877,0.04762459,-0.00134891,-0.007227
 34,-0.00214596,0.00792185,0.54561531,-0.00605955,0.02136690,0.00792542
 ,-0.00453804,-0.00547641,-0.00664449,-0.05985296,0.04582613,-0.0641181
 0,0.00281093,-0.00366003,0.00402723,0.03105549,0.01789607,0.47070521,0
 .00301437,-0.01563810,0.00164661,0.00173744,0.00503315,0.00039650,-0.0
 2377895,0.00365296,-0.01658736,-0.00403827,-0.00148342,-0.00094179,-0.
 15223185,-0.09946608,-0.08176268,0.56428677,-0.00496306,-0.00612755,-0
 .00329874,0.00556068,-0.00026275,0.00286744,0.00590040,0.00902205,0.00
 378617,-0.00334661,0.00248124,-0.00115746,-0.07013483,-0.11953540,-0.0
 5286856,-0.07336598,0.23079112,0.00265187,-0.00920520,-0.00214020,0.00
 047996,0.00253050,0.00271068,-0.01553161,0.00246467,-0.00279235,-0.001
 14318,-0.00017413,-0.00347006,-0.07688870,-0.06901362,-0.08890854,0.27
 859228,-0.00593493,0.18489410,-0.00066431,0.00001592,-0.00056643,0.000
 46112,-0.00059575,0.00027265,0.00046392,-0.00093992,-0.00092014,-0.000
 29444,0.00080622,-0.00012393,-0.01543079,0.00710518,-0.00833155,-0.388
 02894,0.16353229,-0.18243997,0.40032235,-0.00050063,-0.00039644,-0.000
 41833,0.00039235,-0.00087707,0.00017659,-0.00187712,0.00069152,-0.0012
 7867,0.00040217,0.00151123,0.00033897,-0.01796409,0.00188533,-0.009866
 56,0.19049698,-0.10146576,0.08751116,-0.17249191,0.10153671,-0.0006362
 0,-0.00015654,-0.00000138,0.00039370,-0.00038870,0.00003271,-0.0012242
 9,-0.00070689,0.00096800,-0.00018619,0.00062123,0.00007266,-0.01263195
 ,0.00386003,-0.00434978,-0.17767360,0.07260669,-0.08814075,0.18856190,
 -0.07727800,0.09166325,-0.23844822,0.01678966,0.09299464,-0.01742623,-
 0.00219664,-0.00115523,-0.01581994,0.01786651,0.00279694,0.00012442,-0
 .00209200,0.00250646,0.00582129,-0.00890982,0.00526949,-0.00200402,0.0
 0117010,-0.00140436,0.00018330,-0.00004455,0.00019800,0.53438886,0.001
 22139,-0.03822178,-0.00620145,-0.01306010,0.00306838,-0.00167248,0.024
 30997,-0.00907993,-0.00288855,-0.00078279,-0.00225612,0.00109730,-0.00
 719278,0.00362764,-0.00393938,0.00225397,0.00100387,0.00130044,-0.0000
 9732,0.00003816,0.00006167,0.19434276,0.21783894,0.06825018,-0.0111960
 6,-0.07733011,-0.00798680,-0.00186732,0.00445393,0.00411002,-0.0035868
 2,0.00926801,-0.00036891,-0.00058755,0.00019260,-0.00056359,0.00137833
 ,-0.00323277,0.00044311,0.00015346,0.00098068,0.00010676,0.00005951,-0
 .00008051,0.06354890,0.15560173,0.20598161,-0.04560436,0.00297834,-0.0
 3355461,-0.00297922,-0.00115058,-0.01428116,0.00528863,0.00795708,-0.0
 0864682,0.00112774,-0.00093230,-0.00087930,0.00185237,-0.00365584,0.00
 190256,-0.00037829,0.00066537,-0.00060698,0.00011835,0.00000477,0.0001
 6755,-0.00153125,-0.00308611,0.02687371,0.28448784,-0.00367043,-0.0492
 2118,0.03882776,-0.00678660,0.00387957,-0.01006530,0.01203934,-0.01366
 931,0.02156022,0.00059556,-0.00180559,-0.00148731,-0.00908359,0.004566
 67,-0.00318272,0.00253191,0.00093577,0.00147023,-0.00004816,0.00005801
 ,-0.00007966,-0.00014891,0.01074698,0.00295266,0.20563839,0.23128198,-
 0.01123924,0.05728010,-0.26684931,-0.00933454,0.00008867,-0.01085390,-
 0.00922335,0.01640573,-0.00650888,0.00231134,-0.00146341,-0.00129755,0
 .00809817,-0.00724113,-0.00107140,-0.00222752,0.00100755,-0.00037907,0
 .00023563,-0.00002003,-0.00005655,0.01455657,0.00549717,-0.02276675,0.
 19658683,0.08419863,0.45027368,-0.00181627,-0.00396358,0.00004523,0.00
 175369,0.00087952,0.00074280,0.00594706,0.01213862,-0.00673487,-0.0011
 7078,0.00094893,-0.00027337,-0.07360966,-0.06856371,0.05806984,-0.0062
 1907,-0.01596488,0.00393155,0.00210511,0.00063383,0.00106537,0.0006099
 3,0.00100998,-0.00053460,0.00021909,0.00074819,-0.00094266,0.32196668,
 -0.00591983,0.01068011,-0.00030751,0.00015630,-0.00256036,-0.00036623,
 0.00553437,-0.02057268,0.01652865,0.00006679,0.00123092,0.00018742,-0.
 06238282,-0.15198808,0.10446467,-0.01150797,-0.01006776,0.00358991,0.0
 0138025,-0.00120589,0.00111356,0.00250893,-0.00114113,-0.00047754,0.00
 137955,-0.00236885,0.00245886,0.29000430,0.36445392,0.00387487,-0.0075
 7796,-0.00223401,0.00056656,0.00199423,0.00139753,-0.00463593,0.019832
 15,-0.00105933,-0.00045451,0.00000562,-0.00072058,0.04154148,0.0815322
 9,-0.12569395,-0.00466210,-0.00620229,0.00650456,0.00091953,0.00041503
 ,-0.00092223,-0.00179446,0.00073112,0.00110157,-0.00096485,0.00161454,
 -0.00066269,0.10133405,0.02434964,0.26636828,0.00081961,-0.01060242,0.
 00214519,0.00184478,0.00255891,0.00079578,-0.00931789,0.02350818,0.007
 36768,-0.00121203,0.00028757,-0.00039660,-0.08175046,0.03032272,0.0598
 4913,0.00463773,-0.00951178,-0.01108835,0.00055446,0.00058278,0.001872
 17,-0.00183466,0.00191159,0.00013360,-0.00018577,0.00155416,-0.0014610
 5,0.00021587,0.00071445,0.02064131,0.32820341,-0.00393450,0.00935429,-
 0.00218888,0.00013120,-0.00210430,-0.00026920,0.01758062,-0.01258408,-
 0.00867996,-0.00001435,0.00104069,0.00028863,0.04888759,-0.09492329,-0
 .09264764,-0.00097896,-0.00641917,-0.01399078,0.00146636,-0.00103595,0
 .00052159,0.00270959,-0.00168762,-0.00036411,0.00092995,-0.00126256,0.
 00157503,-0.00568642,0.00990919,0.01144206,0.15363751,0.28988799,-0.00
 164298,0.00341782,-0.00455355,0.00060917,-0.00095731,0.00104001,0.0036
 5698,-0.00544075,0.00725882,-0.00037676,0.00117420,-0.00051728,0.08027
 198,-0.08388039,-0.17583719,-0.00040000,-0.01156828,-0.00827634,0.0022
 5051,0.00026763,0.00064113,0.00062310,-0.00077973,0.00072372,-0.000138
 67,-0.00005286,0.00241285,0.01939797,-0.00018754,-0.02331790,0.0771377
 9,0.25914224,0.33559899,-0.02525340,-0.01587432,-0.01051245,-0.0019389
 2,0.00064443,0.00046664,0.00451336,-0.00165524,0.00124479,-0.00035734,
 -0.00071021,0.00038707,-0.00229117,0.00195337,-0.00116638,0.00079834,0
 .00004404,0.00047662,-0.00003459,0.00003064,-0.00000961,-0.26053808,-0
 .20055459,-0.15443785,0.00290633,0.00220441,-0.00234990,0.00017671,-0.
 00066976,0.00042771,0.00050783,-0.00058756,-0.00017180,0.28143530,0.00
 389794,0.00146710,-0.00456515,0.00092720,0.00146638,-0.00058054,-0.000
 64387,-0.00249128,-0.00027069,-0.00027500,0.00009137,0.00023348,0.0009
 4750,0.00030937,-0.00011344,-0.00027428,-0.00019136,-0.00008471,0.0000
 3937,0.00001814,-0.00001459,-0.22142299,-0.18374323,-0.14435418,0.0029
 0572,-0.00047647,-0.00067762,-0.00045312,-0.00006058,0.00008425,-0.000
 15742,-0.00005222,0.00015774,0.21484520,0.18270191,0.01321356,0.002001
 82,0.00280938,0.00146655,-0.00026520,0.00101909,0.00092984,0.00046995,
 -0.00127289,0.00037105,0.00016069,0.00002206,-0.00044655,-0.00030502,0
 .00055461,0.00007765,0.00008078,-0.00009557,-0.00003406,-0.00001250,0.
 00002517,-0.17872145,-0.15071705,-0.12351201,-0.00258167,-0.00086157,-
 0.00194575,0.00036312,0.00007077,-0.00025476,0.00009171,0.00000568,-0.
 00027336,0.16367585,0.14954648,0.12454957,-0.00142271,-0.00596939,-0.0
 0051277,0.00121737,0.00007913,-0.00032178,0.00095498,-0.00043880,0.002
 81508,0.00024514,-0.00017967,0.00008610,-0.00090934,0.00071662,-0.0012
 4873,0.00034983,0.00010195,0.00035054,-0.00001523,0.00000874,-0.000054
 41,-0.00299754,-0.00001140,0.00021627,-0.24502714,-0.20553447,-0.18503
 047,-0.00008428,-0.00036537,0.00039255,0.00024161,-0.00030699,0.000415
 07,0.00008338,-0.00062931,0.00172936,0.24732425,0.00097486,0.00195820,
 0.00919475,0.00007180,0.00113641,0.00160507,-0.00076413,-0.00220149,-0
 .00089933,0.00006747,0.00022275,-0.00023488,0.00063294,0.00000997,0.00
 094128,-0.00027451,-0.00017748,-0.00024968,0.00001349,0.00000800,0.000
 03963,0.00042211,-0.00114312,0.00208798,-0.21315080,-0.18380996,-0.158
 53248,0.00001268,0.00005634,-0.00022864,-0.00022998,0.00007016,-0.0003
 8238,-0.00009057,0.00114615,-0.00022960,0.21217919,0.18300246,-0.02124
 542,-0.01358330,-0.02141136,-0.00126188,0.00105841,-0.00173690,0.00335
 128,-0.00209350,0.00190469,0.00014892,-0.00053268,-0.00075617,-0.00225
 236,0.00181510,-0.00034343,0.00070621,-0.00001557,0.00029359,-0.000026
 69,0.00003177,0.00001377,0.00055552,0.00159320,0.00464690,-0.16394670,
 -0.13486053,-0.13941143,0.00025593,-0.00056985,0.00020285,0.00047648,-
 0.00049243,-0.00047982,0.00196271,0.00071800,-0.00182286,0.18134528,0.
 14666968,0.15868003,0.00119474,-0.00068463,-0.00022069,-0.00012954,0.0
 0017848,0.00004974,-0.00240538,0.00217168,-0.00080980,-0.00002159,-0.0
 0007234,-0.00002606,-0.00666286,-0.01115780,-0.00691072,0.00086429,-0.
 00097033,0.00091720,0.00035901,0.00018639,-0.00017470,-0.00054942,-0.0
 0015459,0.00025965,-0.00027236,0.00018084,0.00000829,-0.24830620,-0.22
 079849,-0.15769963,0.00262346,0.00332227,-0.00184499,0.00004139,0.0002
 2483,-0.00015307,0.00009390,-0.00000748,-0.00002190,0.25308703,0.00065
 058,-0.00296163,0.00040130,0.00036650,0.00082707,0.00027747,0.00105143
 ,0.00465196,-0.00058063,-0.00025940,-0.00003332,-0.00013091,-0.0191006
 0,-0.01597680,-0.00612794,-0.00135364,-0.00049729,0.00127533,-0.000189
 75,-0.00042868,0.00011232,-0.00039535,0.00061945,-0.00005503,-0.000169
 05,0.00050496,-0.00058334,-0.21127525,-0.19419332,-0.12994182,0.002546
 84,-0.00073031,-0.00185821,0.00024329,-0.00017997,0.00010112,0.0000722
 1,-0.00005276,0.00017605,0.22811081,0.20724509,-0.00055784,0.00084135,
 0.00031663,-0.00006604,-0.00026084,-0.00018536,0.00014472,-0.00100390,
 -0.00132980,0.00008057,-0.00000096,0.00008627,0.01202723,0.01648741,0.
 00132864,0.00135950,0.00225738,-0.00000651,-0.00001849,0.00008585,-0.0
 0012206,0.00030134,-0.00004416,-0.00023037,0.00011491,-0.00016880,-0.0
 0007358,-0.17701815,-0.15346047,-0.12527209,-0.00176001,-0.00184314,-0
 .00129012,-0.00007666,-0.00001497,0.00010717,-0.00006402,0.00008576,-0
 .00000439,0.16434542,0.13655681,0.12866542,0.00007206,0.00076029,0.000
 14347,-0.00020713,-0.00024244,-0.00010916,-0.00185519,-0.00052081,-0.0
 0040423,0.00011445,-0.00002804,0.00003277,0.00211457,0.00828160,0.0109
 1317,0.00099062,0.00128265,0.00170313,-0.00009931,0.00013964,0.0003322
 7,0.00002156,-0.00010998,-0.00005044,-0.00002195,-0.00022065,0.0000119
 0,-0.00178788,-0.00010069,0.00051343,-0.24534796,-0.21715631,-0.179787
 35,-0.00004913,0.00006821,0.00001810,-0.00005420,0.00014294,-0.0000473
 9,0.00008352,-0.00029862,0.00118754,0.24602596,0.00080237,-0.00250329,
 -0.00043989,0.00030586,0.00069514,0.00033554,-0.00037954,0.00346952,0.
 00237778,-0.00020639,-0.00001202,-0.00014762,-0.01032087,-0.00885760,-
 0.01261237,0.00037397,0.00051050,-0.00148919,0.00000371,-0.00033731,-0
 .00031234,-0.00059942,0.00032951,0.00025493,-0.00031451,0.00063996,0.0
 0000626,-0.00046909,-0.00217184,0.00194977,-0.19712310,-0.18946282,-0.
 15905217,0.00017686,-0.00000529,-0.00004633,0.00027755,-0.00022564,0.0
 0008564,-0.00052962,0.00120555,0.00048267,0.20800222,0.19672564,0.0006
 6278,-0.00186265,0.00118288,0.00011168,0.00049184,-0.00001917,-0.00150
 699,0.00351142,-0.00080360,-0.00012718,-0.00007448,-0.00006968,-0.0122
 4970,-0.01999506,-0.01434145,0.00103320,-0.00171364,-0.00117423,0.0001
 1428,-0.00001242,0.00025657,-0.00027544,0.00036016,-0.00019649,-0.0000
 4482,0.00013470,-0.00080966,0.00029777,0.00260566,0.00456275,-0.155804
 83,-0.15249909,-0.13312997,0.00008327,-0.00006406,0.00009016,-0.000118
 07,0.00013282,0.00022454,0.00228127,0.00037749,-0.00198984,0.16554281,
 0.16860731,0.14621720\\0.00001788,0.00000559,-0.00002122,-0.00000487,-
 0.00000015,0.00000404,-0.00002998,-0.00000923,0.00004991,0.00000287,-0
 .00000064,-0.00000285,0.00000599,-0.00000442,-0.00002570,0.00000841,0.
 00001499,-0.00000354,-0.00000290,-0.00000679,0.00000544,0.00319848,0.0
 0068885,-0.00721018,-0.00483488,-0.00037134,0.00607097,0.00260999,-0.0
 0112771,-0.00572894,-0.00315147,-0.00292357,0.00472037,0.00370105,-0.0
 0099054,-0.00282389,-0.00064329,-0.00180360,0.00442170,0.00245064,0.00
 402258,-0.00474739,-0.00332794,0.00250599,0.00529128\\\@


 WHEN IT COMES TO CASH FLOW, IT SEEMS LIKE THE TIDE IS ALWAYS GOING OUT.
 Job cpu time:       0 days  0 hours 21 minutes 13.6 seconds.
 File lengths (MBytes):  RWF=     89 Int=      0 D2E=      0 Chk=      5 Scr=      1
 Normal termination of Gaussian 09 at Sun Feb  3 01:50:55 2019.
3827.642u 14.495s 5:33.51 1152.0%	0+0k 492851+795675io 10pf+0w
